V -t * -v 1.0a5 -a 0
A -t * -n 1 -p 0 -o 0x7fffffff -c 30 -a 1
A -t * -h 1 -m 1073741823 -s 0
n -t * -a 0 -s 0 -S UP -v circle -c black -i black
n -t * -a 1 -s 1 -S UP -v circle -c black -i black
n -t * -a 2 -s 2 -S UP -v circle -c black -i black
n -t * -a 3 -s 3 -S UP -v circle -c black -i black
l -t * -s 0 -d 2 -S UP -r 100000000 -D 0.01 -c black -o right-down
l -t * -s 2 -d 3 -S UP -r 10000000 -D 0.01 -c black -o right
l -t * -s 2 -d 1 -S UP -r 100000000 -D 0.01 -c black -o left-down
+ -t 1 -s 0 -d 2 -p tcp -e 40 -c 0 -i 0 -a 0 -x {0.0 3.0 0 ------- null}
- -t 1 -s 0 -d 2 -p tcp -e 40 -c 0 -i 0 -a 0 -x {0.0 3.0 0 ------- null}
h -t 1 -s 0 -d 2 -p tcp -e 40 -c 0 -i 0 -a 0 -x {0.0 3.0 -1 ------- null}
+ -t 1 -s 1 -d 2 -p cbr -e 1000 -c 0 -i 1 -a 0 -x {1.0 3.1 0 ------- null}
- -t 1 -s 1 -d 2 -p cbr -e 1000 -c 0 -i 1 -a 0 -x {1.0 3.1 0 ------- null}
h -t 1 -s 1 -d 2 -p cbr -e 1000 -c 0 -i 1 -a 0 -x {1.0 3.1 -1 ------- null}
+ -t 1.008 -s 1 -d 2 -p cbr -e 1000 -c 0 -i 2 -a 0 -x {1.0 3.1 1 ------- null}
- -t 1.008 -s 1 -d 2 -p cbr -e 1000 -c 0 -i 2 -a 0 -x {1.0 3.1 1 ------- null}
h -t 1.008 -s 1 -d 2 -p cbr -e 1000 -c 0 -i 2 -a 0 -x {1.0 3.1 -1 ------- null}
r -t 1.0100032 -s 0 -d 2 -p tcp -e 40 -c 0 -i 0 -a 0 -x {0.0 3.0 0 ------- null}
+ -t 1.0100032 -s 2 -d 3 -p tcp -e 40 -c 0 -i 0 -a 0 -x {0.0 3.0 0 ------- null}
- -t 1.0100032 -s 2 -d 3 -p tcp -e 40 -c 0 -i 0 -a 0 -x {0.0 3.0 0 ------- null}
h -t 1.0100032 -s 2 -d 3 -p tcp -e 40 -c 0 -i 0 -a 0 -x {0.0 3.0 -1 ------- null}
r -t 1.01008 -s 1 -d 2 -p cbr -e 1000 -c 0 -i 1 -a 0 -x {1.0 3.1 0 ------- null}
+ -t 1.01008 -s 2 -d 3 -p cbr -e 1000 -c 0 -i 1 -a 0 -x {1.0 3.1 0 ------- null}
- -t 1.01008 -s 2 -d 3 -p cbr -e 1000 -c 0 -i 1 -a 0 -x {1.0 3.1 0 ------- null}
h -t 1.01008 -s 2 -d 3 -p cbr -e 1000 -c 0 -i 1 -a 0 -x {1.0 3.1 -1 ------- null}
+ -t 1.016 -s 1 -d 2 -p cbr -e 1000 -c 0 -i 3 -a 0 -x {1.0 3.1 2 ------- null}
- -t 1.016 -s 1 -d 2 -p cbr -e 1000 -c 0 -i 3 -a 0 -x {1.0 3.1 2 ------- null}
h -t 1.016 -s 1 -d 2 -p cbr -e 1000 -c 0 -i 3 -a 0 -x {1.0 3.1 -1 ------- null}
r -t 1.01808 -s 1 -d 2 -p cbr -e 1000 -c 0 -i 2 -a 0 -x {1.0 3.1 1 ------- null}
+ -t 1.01808 -s 2 -d 3 -p cbr -e 1000 -c 0 -i 2 -a 0 -x {1.0 3.1 1 ------- null}
- -t 1.01808 -s 2 -d 3 -p cbr -e 1000 -c 0 -i 2 -a 0 -x {1.0 3.1 1 ------- null}
h -t 1.01808 -s 2 -d 3 -p cbr -e 1000 -c 0 -i 2 -a 0 -x {1.0 3.1 -1 ------- null}
r -t 1.0200352 -s 2 -d 3 -p tcp -e 40 -c 0 -i 0 -a 0 -x {0.0 3.0 0 ------- null}
+ -t 1.0200352 -s 3 -d 2 -p ack -e 40 -c 0 -i 4 -a 0 -x {3.0 0.0 0 ------- null}
- -t 1.0200352 -s 3 -d 2 -p ack -e 40 -c 0 -i 4 -a 0 -x {3.0 0.0 0 ------- null}
h -t 1.0200352 -s 3 -d 2 -p ack -e 40 -c 0 -i 4 -a 0 -x {3.0 0.0 -1 ------- null}
r -t 1.02088 -s 2 -d 3 -p cbr -e 1000 -c 0 -i 1 -a 0 -x {1.0 3.1 0 ------- null}
+ -t 1.024 -s 1 -d 2 -p cbr -e 1000 -c 0 -i 5 -a 0 -x {1.0 3.1 3 ------- null}
- -t 1.024 -s 1 -d 2 -p cbr -e 1000 -c 0 -i 5 -a 0 -x {1.0 3.1 3 ------- null}
h -t 1.024 -s 1 -d 2 -p cbr -e 1000 -c 0 -i 5 -a 0 -x {1.0 3.1 -1 ------- null}
r -t 1.02608 -s 1 -d 2 -p cbr -e 1000 -c 0 -i 3 -a 0 -x {1.0 3.1 2 ------- null}
+ -t 1.02608 -s 2 -d 3 -p cbr -e 1000 -c 0 -i 3 -a 0 -x {1.0 3.1 2 ------- null}
- -t 1.02608 -s 2 -d 3 -p cbr -e 1000 -c 0 -i 3 -a 0 -x {1.0 3.1 2 ------- null}
h -t 1.02608 -s 2 -d 3 -p cbr -e 1000 -c 0 -i 3 -a 0 -x {1.0 3.1 -1 ------- null}
r -t 1.02888 -s 2 -d 3 -p cbr -e 1000 -c 0 -i 2 -a 0 -x {1.0 3.1 1 ------- null}
r -t 1.0300672 -s 3 -d 2 -p ack -e 40 -c 0 -i 4 -a 0 -x {3.0 0.0 0 ------- null}
+ -t 1.0300672 -s 2 -d 0 -p ack -e 40 -c 0 -i 4 -a 0 -x {3.0 0.0 0 ------- null}
- -t 1.0300672 -s 2 -d 0 -p ack -e 40 -c 0 -i 4 -a 0 -x {3.0 0.0 0 ------- null}
h -t 1.0300672 -s 2 -d 0 -p ack -e 40 -c 0 -i 4 -a 0 -x {3.0 0.0 -1 ------- null}
+ -t 1.032 -s 1 -d 2 -p cbr -e 1000 -c 0 -i 6 -a 0 -x {1.0 3.1 4 ------- null}
- -t 1.032 -s 1 -d 2 -p cbr -e 1000 -c 0 -i 6 -a 0 -x {1.0 3.1 4 ------- null}
h -t 1.032 -s 1 -d 2 -p cbr -e 1000 -c 0 -i 6 -a 0 -x {1.0 3.1 -1 ------- null}
r -t 1.03408 -s 1 -d 2 -p cbr -e 1000 -c 0 -i 5 -a 0 -x {1.0 3.1 3 ------- null}
+ -t 1.03408 -s 2 -d 3 -p cbr -e 1000 -c 0 -i 5 -a 0 -x {1.0 3.1 3 ------- null}
- -t 1.03408 -s 2 -d 3 -p cbr -e 1000 -c 0 -i 5 -a 0 -x {1.0 3.1 3 ------- null}
h -t 1.03408 -s 2 -d 3 -p cbr -e 1000 -c 0 -i 5 -a 0 -x {1.0 3.1 -1 ------- null}
r -t 1.03688 -s 2 -d 3 -p cbr -e 1000 -c 0 -i 3 -a 0 -x {1.0 3.1 2 ------- null}
+ -t 1.04 -s 1 -d 2 -p cbr -e 1000 -c 0 -i 7 -a 0 -x {1.0 3.1 5 ------- null}
- -t 1.04 -s 1 -d 2 -p cbr -e 1000 -c 0 -i 7 -a 0 -x {1.0 3.1 5 ------- null}
h -t 1.04 -s 1 -d 2 -p cbr -e 1000 -c 0 -i 7 -a 0 -x {1.0 3.1 -1 ------- null}
r -t 1.0400704 -s 2 -d 0 -p ack -e 40 -c 0 -i 4 -a 0 -x {3.0 0.0 0 ------- null}
+ -t 1.0400704 -s 0 -d 2 -p tcp -e 1540 -c 0 -i 8 -a 0 -x {0.0 3.0 1 ------- null}
- -t 1.0400704 -s 0 -d 2 -p tcp -e 1540 -c 0 -i 8 -a 0 -x {0.0 3.0 1 ------- null}
h -t 1.0400704 -s 0 -d 2 -p tcp -e 1540 -c 0 -i 8 -a 0 -x {0.0 3.0 -1 ------- null}
+ -t 1.0400704 -s 0 -d 2 -p tcp -e 1540 -c 0 -i 9 -a 0 -x {0.0 3.0 2 ------- null}
- -t 1.0401936 -s 0 -d 2 -p tcp -e 1540 -c 0 -i 9 -a 0 -x {0.0 3.0 2 ------- null}
h -t 1.0401936 -s 0 -d 2 -p tcp -e 1540 -c 0 -i 9 -a 0 -x {0.0 3.0 -1 ------- null}
r -t 1.04208 -s 1 -d 2 -p cbr -e 1000 -c 0 -i 6 -a 0 -x {1.0 3.1 4 ------- null}
+ -t 1.04208 -s 2 -d 3 -p cbr -e 1000 -c 0 -i 6 -a 0 -x {1.0 3.1 4 ------- null}
- -t 1.04208 -s 2 -d 3 -p cbr -e 1000 -c 0 -i 6 -a 0 -x {1.0 3.1 4 ------- null}
h -t 1.04208 -s 2 -d 3 -p cbr -e 1000 -c 0 -i 6 -a 0 -x {1.0 3.1 -1 ------- null}
r -t 1.04488 -s 2 -d 3 -p cbr -e 1000 -c 0 -i 5 -a 0 -x {1.0 3.1 3 ------- null}
+ -t 1.048 -s 1 -d 2 -p cbr -e 1000 -c 0 -i 10 -a 0 -x {1.0 3.1 6 ------- null}
- -t 1.048 -s 1 -d 2 -p cbr -e 1000 -c 0 -i 10 -a 0 -x {1.0 3.1 6 ------- null}
h -t 1.048 -s 1 -d 2 -p cbr -e 1000 -c 0 -i 10 -a 0 -x {1.0 3.1 -1 ------- null}
r -t 1.05008 -s 1 -d 2 -p cbr -e 1000 -c 0 -i 7 -a 0 -x {1.0 3.1 5 ------- null}
+ -t 1.05008 -s 2 -d 3 -p cbr -e 1000 -c 0 -i 7 -a 0 -x {1.0 3.1 5 ------- null}
- -t 1.05008 -s 2 -d 3 -p cbr -e 1000 -c 0 -i 7 -a 0 -x {1.0 3.1 5 ------- null}
h -t 1.05008 -s 2 -d 3 -p cbr -e 1000 -c 0 -i 7 -a 0 -x {1.0 3.1 -1 ------- null}
r -t 1.0501936 -s 0 -d 2 -p tcp -e 1540 -c 0 -i 8 -a 0 -x {0.0 3.0 1 ------- null}
+ -t 1.0501936 -s 2 -d 3 -p tcp -e 1540 -c 0 -i 8 -a 0 -x {0.0 3.0 1 ------- null}
r -t 1.0503168 -s 0 -d 2 -p tcp -e 1540 -c 0 -i 9 -a 0 -x {0.0 3.0 2 ------- null}
+ -t 1.0503168 -s 2 -d 3 -p tcp -e 1540 -c 0 -i 9 -a 0 -x {0.0 3.0 2 ------- null}
- -t 1.05088 -s 2 -d 3 -p tcp -e 1540 -c 0 -i 8 -a 0 -x {0.0 3.0 1 ------- null}
h -t 1.05088 -s 2 -d 3 -p tcp -e 1540 -c 0 -i 8 -a 0 -x {0.0 3.0 -1 ------- null}
- -t 1.052112 -s 2 -d 3 -p tcp -e 1540 -c 0 -i 9 -a 0 -x {0.0 3.0 2 ------- null}
h -t 1.052112 -s 2 -d 3 -p tcp -e 1540 -c 0 -i 9 -a 0 -x {0.0 3.0 -1 ------- null}
r -t 1.05288 -s 2 -d 3 -p cbr -e 1000 -c 0 -i 6 -a 0 -x {1.0 3.1 4 ------- null}
+ -t 1.056 -s 1 -d 2 -p cbr -e 1000 -c 0 -i 11 -a 0 -x {1.0 3.1 7 ------- null}
- -t 1.056 -s 1 -d 2 -p cbr -e 1000 -c 0 -i 11 -a 0 -x {1.0 3.1 7 ------- null}
h -t 1.056 -s 1 -d 2 -p cbr -e 1000 -c 0 -i 11 -a 0 -x {1.0 3.1 -1 ------- null}
r -t 1.05808 -s 1 -d 2 -p cbr -e 1000 -c 0 -i 10 -a 0 -x {1.0 3.1 6 ------- null}
+ -t 1.05808 -s 2 -d 3 -p cbr -e 1000 -c 0 -i 10 -a 0 -x {1.0 3.1 6 ------- null}
- -t 1.05808 -s 2 -d 3 -p cbr -e 1000 -c 0 -i 10 -a 0 -x {1.0 3.1 6 ------- null}
h -t 1.05808 -s 2 -d 3 -p cbr -e 1000 -c 0 -i 10 -a 0 -x {1.0 3.1 -1 ------- null}
r -t 1.06088 -s 2 -d 3 -p cbr -e 1000 -c 0 -i 7 -a 0 -x {1.0 3.1 5 ------- null}
r -t 1.062112 -s 2 -d 3 -p tcp -e 1540 -c 0 -i 8 -a 0 -x {0.0 3.0 1 ------- null}
+ -t 1.062112 -s 3 -d 2 -p ack -e 40 -c 0 -i 12 -a 0 -x {3.0 0.0 1 ------- null}
- -t 1.062112 -s 3 -d 2 -p ack -e 40 -c 0 -i 12 -a 0 -x {3.0 0.0 1 ------- null}
h -t 1.062112 -s 3 -d 2 -p ack -e 40 -c 0 -i 12 -a 0 -x {3.0 0.0 -1 ------- null}
r -t 1.063344 -s 2 -d 3 -p tcp -e 1540 -c 0 -i 9 -a 0 -x {0.0 3.0 2 ------- null}
+ -t 1.063344 -s 3 -d 2 -p ack -e 40 -c 0 -i 13 -a 0 -x {3.0 0.0 2 ------- null}
- -t 1.063344 -s 3 -d 2 -p ack -e 40 -c 0 -i 13 -a 0 -x {3.0 0.0 2 ------- null}
h -t 1.063344 -s 3 -d 2 -p ack -e 40 -c 0 -i 13 -a 0 -x {3.0 0.0 -1 ------- null}
+ -t 1.064 -s 1 -d 2 -p cbr -e 1000 -c 0 -i 14 -a 0 -x {1.0 3.1 8 ------- null}
- -t 1.064 -s 1 -d 2 -p cbr -e 1000 -c 0 -i 14 -a 0 -x {1.0 3.1 8 ------- null}
h -t 1.064 -s 1 -d 2 -p cbr -e 1000 -c 0 -i 14 -a 0 -x {1.0 3.1 -1 ------- null}
r -t 1.06608 -s 1 -d 2 -p cbr -e 1000 -c 0 -i 11 -a 0 -x {1.0 3.1 7 ------- null}
+ -t 1.06608 -s 2 -d 3 -p cbr -e 1000 -c 0 -i 11 -a 0 -x {1.0 3.1 7 ------- null}
- -t 1.06608 -s 2 -d 3 -p cbr -e 1000 -c 0 -i 11 -a 0 -x {1.0 3.1 7 ------- null}
h -t 1.06608 -s 2 -d 3 -p cbr -e 1000 -c 0 -i 11 -a 0 -x {1.0 3.1 -1 ------- null}
r -t 1.06888 -s 2 -d 3 -p cbr -e 1000 -c 0 -i 10 -a 0 -x {1.0 3.1 6 ------- null}
+ -t 1.072 -s 1 -d 2 -p cbr -e 1000 -c 0 -i 15 -a 0 -x {1.0 3.1 9 ------- null}
- -t 1.072 -s 1 -d 2 -p cbr -e 1000 -c 0 -i 15 -a 0 -x {1.0 3.1 9 ------- null}
h -t 1.072 -s 1 -d 2 -p cbr -e 1000 -c 0 -i 15 -a 0 -x {1.0 3.1 -1 ------- null}
r -t 1.072144 -s 3 -d 2 -p ack -e 40 -c 0 -i 12 -a 0 -x {3.0 0.0 1 ------- null}
+ -t 1.072144 -s 2 -d 0 -p ack -e 40 -c 0 -i 12 -a 0 -x {3.0 0.0 1 ------- null}
- -t 1.072144 -s 2 -d 0 -p ack -e 40 -c 0 -i 12 -a 0 -x {3.0 0.0 1 ------- null}
h -t 1.072144 -s 2 -d 0 -p ack -e 40 -c 0 -i 12 -a 0 -x {3.0 0.0 -1 ------- null}
r -t 1.073376 -s 3 -d 2 -p ack -e 40 -c 0 -i 13 -a 0 -x {3.0 0.0 2 ------- null}
+ -t 1.073376 -s 2 -d 0 -p ack -e 40 -c 0 -i 13 -a 0 -x {3.0 0.0 2 ------- null}
- -t 1.073376 -s 2 -d 0 -p ack -e 40 -c 0 -i 13 -a 0 -x {3.0 0.0 2 ------- null}
h -t 1.073376 -s 2 -d 0 -p ack -e 40 -c 0 -i 13 -a 0 -x {3.0 0.0 -1 ------- null}
r -t 1.07408 -s 1 -d 2 -p cbr -e 1000 -c 0 -i 14 -a 0 -x {1.0 3.1 8 ------- null}
+ -t 1.07408 -s 2 -d 3 -p cbr -e 1000 -c 0 -i 14 -a 0 -x {1.0 3.1 8 ------- null}
- -t 1.07408 -s 2 -d 3 -p cbr -e 1000 -c 0 -i 14 -a 0 -x {1.0 3.1 8 ------- null}
h -t 1.07408 -s 2 -d 3 -p cbr -e 1000 -c 0 -i 14 -a 0 -x {1.0 3.1 -1 ------- null}
r -t 1.07688 -s 2 -d 3 -p cbr -e 1000 -c 0 -i 11 -a 0 -x {1.0 3.1 7 ------- null}
+ -t 1.08 -s 1 -d 2 -p cbr -e 1000 -c 0 -i 16 -a 0 -x {1.0 3.1 10 ------- null}
- -t 1.08 -s 1 -d 2 -p cbr -e 1000 -c 0 -i 16 -a 0 -x {1.0 3.1 10 ------- null}
h -t 1.08 -s 1 -d 2 -p cbr -e 1000 -c 0 -i 16 -a 0 -x {1.0 3.1 -1 ------- null}
r -t 1.08208 -s 1 -d 2 -p cbr -e 1000 -c 0 -i 15 -a 0 -x {1.0 3.1 9 ------- null}
+ -t 1.08208 -s 2 -d 3 -p cbr -e 1000 -c 0 -i 15 -a 0 -x {1.0 3.1 9 ------- null}
- -t 1.08208 -s 2 -d 3 -p cbr -e 1000 -c 0 -i 15 -a 0 -x {1.0 3.1 9 ------- null}
h -t 1.08208 -s 2 -d 3 -p cbr -e 1000 -c 0 -i 15 -a 0 -x {1.0 3.1 -1 ------- null}
r -t 1.0821472 -s 2 -d 0 -p ack -e 40 -c 0 -i 12 -a 0 -x {3.0 0.0 1 ------- null}
+ -t 1.0821472 -s 0 -d 2 -p tcp -e 1540 -c 0 -i 17 -a 0 -x {0.0 3.0 3 ------- null}
- -t 1.0821472 -s 0 -d 2 -p tcp -e 1540 -c 0 -i 17 -a 0 -x {0.0 3.0 3 ------- null}
h -t 1.0821472 -s 0 -d 2 -p tcp -e 1540 -c 0 -i 17 -a 0 -x {0.0 3.0 -1 ------- null}
+ -t 1.0821472 -s 0 -d 2 -p tcp -e 1540 -c 0 -i 18 -a 0 -x {0.0 3.0 4 ------- null}
- -t 1.0822704 -s 0 -d 2 -p tcp -e 1540 -c 0 -i 18 -a 0 -x {0.0 3.0 4 ------- null}
h -t 1.0822704 -s 0 -d 2 -p tcp -e 1540 -c 0 -i 18 -a 0 -x {0.0 3.0 -1 ------- null}
r -t 1.0833792 -s 2 -d 0 -p ack -e 40 -c 0 -i 13 -a 0 -x {3.0 0.0 2 ------- null}
+ -t 1.0833792 -s 0 -d 2 -p tcp -e 1540 -c 0 -i 19 -a 0 -x {0.0 3.0 5 ------- null}
- -t 1.0833792 -s 0 -d 2 -p tcp -e 1540 -c 0 -i 19 -a 0 -x {0.0 3.0 5 ------- null}
h -t 1.0833792 -s 0 -d 2 -p tcp -e 1540 -c 0 -i 19 -a 0 -x {0.0 3.0 -1 ------- null}
+ -t 1.0833792 -s 0 -d 2 -p tcp -e 1540 -c 0 -i 20 -a 0 -x {0.0 3.0 6 ------- null}
- -t 1.0835024 -s 0 -d 2 -p tcp -e 1540 -c 0 -i 20 -a 0 -x {0.0 3.0 6 ------- null}
h -t 1.0835024 -s 0 -d 2 -p tcp -e 1540 -c 0 -i 20 -a 0 -x {0.0 3.0 -1 ------- null}
r -t 1.08488 -s 2 -d 3 -p cbr -e 1000 -c 0 -i 14 -a 0 -x {1.0 3.1 8 ------- null}
+ -t 1.088 -s 1 -d 2 -p cbr -e 1000 -c 0 -i 21 -a 0 -x {1.0 3.1 11 ------- null}
- -t 1.088 -s 1 -d 2 -p cbr -e 1000 -c 0 -i 21 -a 0 -x {1.0 3.1 11 ------- null}
h -t 1.088 -s 1 -d 2 -p cbr -e 1000 -c 0 -i 21 -a 0 -x {1.0 3.1 -1 ------- null}
r -t 1.09008 -s 1 -d 2 -p cbr -e 1000 -c 0 -i 16 -a 0 -x {1.0 3.1 10 ------- null}
+ -t 1.09008 -s 2 -d 3 -p cbr -e 1000 -c 0 -i 16 -a 0 -x {1.0 3.1 10 ------- null}
- -t 1.09008 -s 2 -d 3 -p cbr -e 1000 -c 0 -i 16 -a 0 -x {1.0 3.1 10 ------- null}
h -t 1.09008 -s 2 -d 3 -p cbr -e 1000 -c 0 -i 16 -a 0 -x {1.0 3.1 -1 ------- null}
r -t 1.0922704 -s 0 -d 2 -p tcp -e 1540 -c 0 -i 17 -a 0 -x {0.0 3.0 3 ------- null}
+ -t 1.0922704 -s 2 -d 3 -p tcp -e 1540 -c 0 -i 17 -a 0 -x {0.0 3.0 3 ------- null}
- -t 1.0922704 -s 2 -d 3 -p tcp -e 1540 -c 0 -i 17 -a 0 -x {0.0 3.0 3 ------- null}
h -t 1.0922704 -s 2 -d 3 -p tcp -e 1540 -c 0 -i 17 -a 0 -x {0.0 3.0 -1 ------- null}
r -t 1.0923936 -s 0 -d 2 -p tcp -e 1540 -c 0 -i 18 -a 0 -x {0.0 3.0 4 ------- null}
+ -t 1.0923936 -s 2 -d 3 -p tcp -e 1540 -c 0 -i 18 -a 0 -x {0.0 3.0 4 ------- null}
r -t 1.09288 -s 2 -d 3 -p cbr -e 1000 -c 0 -i 15 -a 0 -x {1.0 3.1 9 ------- null}
r -t 1.0935024 -s 0 -d 2 -p tcp -e 1540 -c 0 -i 19 -a 0 -x {0.0 3.0 5 ------- null}
+ -t 1.0935024 -s 2 -d 3 -p tcp -e 1540 -c 0 -i 19 -a 0 -x {0.0 3.0 5 ------- null}
- -t 1.0935024 -s 2 -d 3 -p tcp -e 1540 -c 0 -i 18 -a 0 -x {0.0 3.0 4 ------- null}
h -t 1.0935024 -s 2 -d 3 -p tcp -e 1540 -c 0 -i 18 -a 0 -x {0.0 3.0 -1 ------- null}
r -t 1.0936256 -s 0 -d 2 -p tcp -e 1540 -c 0 -i 20 -a 0 -x {0.0 3.0 6 ------- null}
+ -t 1.0936256 -s 2 -d 3 -p tcp -e 1540 -c 0 -i 20 -a 0 -x {0.0 3.0 6 ------- null}
- -t 1.0947344 -s 2 -d 3 -p tcp -e 1540 -c 0 -i 19 -a 0 -x {0.0 3.0 5 ------- null}
h -t 1.0947344 -s 2 -d 3 -p tcp -e 1540 -c 0 -i 19 -a 0 -x {0.0 3.0 -1 ------- null}
- -t 1.0959664 -s 2 -d 3 -p tcp -e 1540 -c 0 -i 20 -a 0 -x {0.0 3.0 6 ------- null}
h -t 1.0959664 -s 2 -d 3 -p tcp -e 1540 -c 0 -i 20 -a 0 -x {0.0 3.0 -1 ------- null}
+ -t 1.096 -s 1 -d 2 -p cbr -e 1000 -c 0 -i 22 -a 0 -x {1.0 3.1 12 ------- null}
- -t 1.096 -s 1 -d 2 -p cbr -e 1000 -c 0 -i 22 -a 0 -x {1.0 3.1 12 ------- null}
h -t 1.096 -s 1 -d 2 -p cbr -e 1000 -c 0 -i 22 -a 0 -x {1.0 3.1 -1 ------- null}
r -t 1.09808 -s 1 -d 2 -p cbr -e 1000 -c 0 -i 21 -a 0 -x {1.0 3.1 11 ------- null}
+ -t 1.09808 -s 2 -d 3 -p cbr -e 1000 -c 0 -i 21 -a 0 -x {1.0 3.1 11 ------- null}
- -t 1.09808 -s 2 -d 3 -p cbr -e 1000 -c 0 -i 21 -a 0 -x {1.0 3.1 11 ------- null}
h -t 1.09808 -s 2 -d 3 -p cbr -e 1000 -c 0 -i 21 -a 0 -x {1.0 3.1 -1 ------- null}
r -t 1.10088 -s 2 -d 3 -p cbr -e 1000 -c 0 -i 16 -a 0 -x {1.0 3.1 10 ------- null}
r -t 1.1035024 -s 2 -d 3 -p tcp -e 1540 -c 0 -i 17 -a 0 -x {0.0 3.0 3 ------- null}
+ -t 1.1035024 -s 3 -d 2 -p ack -e 40 -c 0 -i 23 -a 0 -x {3.0 0.0 3 ------- null}
- -t 1.1035024 -s 3 -d 2 -p ack -e 40 -c 0 -i 23 -a 0 -x {3.0 0.0 3 ------- null}
h -t 1.1035024 -s 3 -d 2 -p ack -e 40 -c 0 -i 23 -a 0 -x {3.0 0.0 -1 ------- null}
+ -t 1.104 -s 1 -d 2 -p cbr -e 1000 -c 0 -i 24 -a 0 -x {1.0 3.1 13 ------- null}
- -t 1.104 -s 1 -d 2 -p cbr -e 1000 -c 0 -i 24 -a 0 -x {1.0 3.1 13 ------- null}
h -t 1.104 -s 1 -d 2 -p cbr -e 1000 -c 0 -i 24 -a 0 -x {1.0 3.1 -1 ------- null}
r -t 1.1047344 -s 2 -d 3 -p tcp -e 1540 -c 0 -i 18 -a 0 -x {0.0 3.0 4 ------- null}
+ -t 1.1047344 -s 3 -d 2 -p ack -e 40 -c 0 -i 25 -a 0 -x {3.0 0.0 4 ------- null}
- -t 1.1047344 -s 3 -d 2 -p ack -e 40 -c 0 -i 25 -a 0 -x {3.0 0.0 4 ------- null}
h -t 1.1047344 -s 3 -d 2 -p ack -e 40 -c 0 -i 25 -a 0 -x {3.0 0.0 -1 ------- null}
r -t 1.1059664 -s 2 -d 3 -p tcp -e 1540 -c 0 -i 19 -a 0 -x {0.0 3.0 5 ------- null}
+ -t 1.1059664 -s 3 -d 2 -p ack -e 40 -c 0 -i 26 -a 0 -x {3.0 0.0 5 ------- null}
- -t 1.1059664 -s 3 -d 2 -p ack -e 40 -c 0 -i 26 -a 0 -x {3.0 0.0 5 ------- null}
h -t 1.1059664 -s 3 -d 2 -p ack -e 40 -c 0 -i 26 -a 0 -x {3.0 0.0 -1 ------- null}
r -t 1.10608 -s 1 -d 2 -p cbr -e 1000 -c 0 -i 22 -a 0 -x {1.0 3.1 12 ------- null}
+ -t 1.10608 -s 2 -d 3 -p cbr -e 1000 -c 0 -i 22 -a 0 -x {1.0 3.1 12 ------- null}
- -t 1.10608 -s 2 -d 3 -p cbr -e 1000 -c 0 -i 22 -a 0 -x {1.0 3.1 12 ------- null}
h -t 1.10608 -s 2 -d 3 -p cbr -e 1000 -c 0 -i 22 -a 0 -x {1.0 3.1 -1 ------- null}
r -t 1.1071984 -s 2 -d 3 -p tcp -e 1540 -c 0 -i 20 -a 0 -x {0.0 3.0 6 ------- null}
+ -t 1.1071984 -s 3 -d 2 -p ack -e 40 -c 0 -i 27 -a 0 -x {3.0 0.0 6 ------- null}
- -t 1.1071984 -s 3 -d 2 -p ack -e 40 -c 0 -i 27 -a 0 -x {3.0 0.0 6 ------- null}
h -t 1.1071984 -s 3 -d 2 -p ack -e 40 -c 0 -i 27 -a 0 -x {3.0 0.0 -1 ------- null}
r -t 1.10888 -s 2 -d 3 -p cbr -e 1000 -c 0 -i 21 -a 0 -x {1.0 3.1 11 ------- null}
+ -t 1.112 -s 1 -d 2 -p cbr -e 1000 -c 0 -i 28 -a 0 -x {1.0 3.1 14 ------- null}
- -t 1.112 -s 1 -d 2 -p cbr -e 1000 -c 0 -i 28 -a 0 -x {1.0 3.1 14 ------- null}
h -t 1.112 -s 1 -d 2 -p cbr -e 1000 -c 0 -i 28 -a 0 -x {1.0 3.1 -1 ------- null}
r -t 1.1135344 -s 3 -d 2 -p ack -e 40 -c 0 -i 23 -a 0 -x {3.0 0.0 3 ------- null}
+ -t 1.1135344 -s 2 -d 0 -p ack -e 40 -c 0 -i 23 -a 0 -x {3.0 0.0 3 ------- null}
- -t 1.1135344 -s 2 -d 0 -p ack -e 40 -c 0 -i 23 -a 0 -x {3.0 0.0 3 ------- null}
h -t 1.1135344 -s 2 -d 0 -p ack -e 40 -c 0 -i 23 -a 0 -x {3.0 0.0 -1 ------- null}
r -t 1.11408 -s 1 -d 2 -p cbr -e 1000 -c 0 -i 24 -a 0 -x {1.0 3.1 13 ------- null}
+ -t 1.11408 -s 2 -d 3 -p cbr -e 1000 -c 0 -i 24 -a 0 -x {1.0 3.1 13 ------- null}
- -t 1.11408 -s 2 -d 3 -p cbr -e 1000 -c 0 -i 24 -a 0 -x {1.0 3.1 13 ------- null}
h -t 1.11408 -s 2 -d 3 -p cbr -e 1000 -c 0 -i 24 -a 0 -x {1.0 3.1 -1 ------- null}
r -t 1.1147664 -s 3 -d 2 -p ack -e 40 -c 0 -i 25 -a 0 -x {3.0 0.0 4 ------- null}
+ -t 1.1147664 -s 2 -d 0 -p ack -e 40 -c 0 -i 25 -a 0 -x {3.0 0.0 4 ------- null}
- -t 1.1147664 -s 2 -d 0 -p ack -e 40 -c 0 -i 25 -a 0 -x {3.0 0.0 4 ------- null}
h -t 1.1147664 -s 2 -d 0 -p ack -e 40 -c 0 -i 25 -a 0 -x {3.0 0.0 -1 ------- null}
r -t 1.1159984 -s 3 -d 2 -p ack -e 40 -c 0 -i 26 -a 0 -x {3.0 0.0 5 ------- null}
+ -t 1.1159984 -s 2 -d 0 -p ack -e 40 -c 0 -i 26 -a 0 -x {3.0 0.0 5 ------- null}
- -t 1.1159984 -s 2 -d 0 -p ack -e 40 -c 0 -i 26 -a 0 -x {3.0 0.0 5 ------- null}
h -t 1.1159984 -s 2 -d 0 -p ack -e 40 -c 0 -i 26 -a 0 -x {3.0 0.0 -1 ------- null}
r -t 1.11688 -s 2 -d 3 -p cbr -e 1000 -c 0 -i 22 -a 0 -x {1.0 3.1 12 ------- null}
r -t 1.1172304 -s 3 -d 2 -p ack -e 40 -c 0 -i 27 -a 0 -x {3.0 0.0 6 ------- null}
+ -t 1.1172304 -s 2 -d 0 -p ack -e 40 -c 0 -i 27 -a 0 -x {3.0 0.0 6 ------- null}
- -t 1.1172304 -s 2 -d 0 -p ack -e 40 -c 0 -i 27 -a 0 -x {3.0 0.0 6 ------- null}
h -t 1.1172304 -s 2 -d 0 -p ack -e 40 -c 0 -i 27 -a 0 -x {3.0 0.0 -1 ------- null}
+ -t 1.12 -s 1 -d 2 -p cbr -e 1000 -c 0 -i 29 -a 0 -x {1.0 3.1 15 ------- null}
- -t 1.12 -s 1 -d 2 -p cbr -e 1000 -c 0 -i 29 -a 0 -x {1.0 3.1 15 ------- null}
h -t 1.12 -s 1 -d 2 -p cbr -e 1000 -c 0 -i 29 -a 0 -x {1.0 3.1 -1 ------- null}
r -t 1.12208 -s 1 -d 2 -p cbr -e 1000 -c 0 -i 28 -a 0 -x {1.0 3.1 14 ------- null}
+ -t 1.12208 -s 2 -d 3 -p cbr -e 1000 -c 0 -i 28 -a 0 -x {1.0 3.1 14 ------- null}
- -t 1.12208 -s 2 -d 3 -p cbr -e 1000 -c 0 -i 28 -a 0 -x {1.0 3.1 14 ------- null}
h -t 1.12208 -s 2 -d 3 -p cbr -e 1000 -c 0 -i 28 -a 0 -x {1.0 3.1 -1 ------- null}
r -t 1.1235376 -s 2 -d 0 -p ack -e 40 -c 0 -i 23 -a 0 -x {3.0 0.0 3 ------- null}
+ -t 1.1235376 -s 0 -d 2 -p tcp -e 1540 -c 0 -i 30 -a 0 -x {0.0 3.0 7 ------- null}
- -t 1.1235376 -s 0 -d 2 -p tcp -e 1540 -c 0 -i 30 -a 0 -x {0.0 3.0 7 ------- null}
h -t 1.1235376 -s 0 -d 2 -p tcp -e 1540 -c 0 -i 30 -a 0 -x {0.0 3.0 -1 ------- null}
+ -t 1.1235376 -s 0 -d 2 -p tcp -e 1540 -c 0 -i 31 -a 0 -x {0.0 3.0 8 ------- null}
- -t 1.1236608 -s 0 -d 2 -p tcp -e 1540 -c 0 -i 31 -a 0 -x {0.0 3.0 8 ------- null}
h -t 1.1236608 -s 0 -d 2 -p tcp -e 1540 -c 0 -i 31 -a 0 -x {0.0 3.0 -1 ------- null}
r -t 1.1247696 -s 2 -d 0 -p ack -e 40 -c 0 -i 25 -a 0 -x {3.0 0.0 4 ------- null}
+ -t 1.1247696 -s 0 -d 2 -p tcp -e 1540 -c 0 -i 32 -a 0 -x {0.0 3.0 9 ------- null}
- -t 1.1247696 -s 0 -d 2 -p tcp -e 1540 -c 0 -i 32 -a 0 -x {0.0 3.0 9 ------- null}
h -t 1.1247696 -s 0 -d 2 -p tcp -e 1540 -c 0 -i 32 -a 0 -x {0.0 3.0 -1 ------- null}
+ -t 1.1247696 -s 0 -d 2 -p tcp -e 1540 -c 0 -i 33 -a 0 -x {0.0 3.0 10 ------- null}
r -t 1.12488 -s 2 -d 3 -p cbr -e 1000 -c 0 -i 24 -a 0 -x {1.0 3.1 13 ------- null}
- -t 1.1248928 -s 0 -d 2 -p tcp -e 1540 -c 0 -i 33 -a 0 -x {0.0 3.0 10 ------- null}
h -t 1.1248928 -s 0 -d 2 -p tcp -e 1540 -c 0 -i 33 -a 0 -x {0.0 3.0 -1 ------- null}
r -t 1.1260016 -s 2 -d 0 -p ack -e 40 -c 0 -i 26 -a 0 -x {3.0 0.0 5 ------- null}
+ -t 1.1260016 -s 0 -d 2 -p tcp -e 1540 -c 0 -i 34 -a 0 -x {0.0 3.0 11 ------- null}
- -t 1.1260016 -s 0 -d 2 -p tcp -e 1540 -c 0 -i 34 -a 0 -x {0.0 3.0 11 ------- null}
h -t 1.1260016 -s 0 -d 2 -p tcp -e 1540 -c 0 -i 34 -a 0 -x {0.0 3.0 -1 ------- null}
+ -t 1.1260016 -s 0 -d 2 -p tcp -e 1540 -c 0 -i 35 -a 0 -x {0.0 3.0 12 ------- null}
- -t 1.1261248 -s 0 -d 2 -p tcp -e 1540 -c 0 -i 35 -a 0 -x {0.0 3.0 12 ------- null}
h -t 1.1261248 -s 0 -d 2 -p tcp -e 1540 -c 0 -i 35 -a 0 -x {0.0 3.0 -1 ------- null}
r -t 1.1272336 -s 2 -d 0 -p ack -e 40 -c 0 -i 27 -a 0 -x {3.0 0.0 6 ------- null}
+ -t 1.1272336 -s 0 -d 2 -p tcp -e 1540 -c 0 -i 36 -a 0 -x {0.0 3.0 13 ------- null}
- -t 1.1272336 -s 0 -d 2 -p tcp -e 1540 -c 0 -i 36 -a 0 -x {0.0 3.0 13 ------- null}
h -t 1.1272336 -s 0 -d 2 -p tcp -e 1540 -c 0 -i 36 -a 0 -x {0.0 3.0 -1 ------- null}
+ -t 1.1272336 -s 0 -d 2 -p tcp -e 1540 -c 0 -i 37 -a 0 -x {0.0 3.0 14 ------- null}
- -t 1.1273568 -s 0 -d 2 -p tcp -e 1540 -c 0 -i 37 -a 0 -x {0.0 3.0 14 ------- null}
h -t 1.1273568 -s 0 -d 2 -p tcp -e 1540 -c 0 -i 37 -a 0 -x {0.0 3.0 -1 ------- null}
+ -t 1.128 -s 1 -d 2 -p cbr -e 1000 -c 0 -i 38 -a 0 -x {1.0 3.1 16 ------- null}
- -t 1.128 -s 1 -d 2 -p cbr -e 1000 -c 0 -i 38 -a 0 -x {1.0 3.1 16 ------- null}
h -t 1.128 -s 1 -d 2 -p cbr -e 1000 -c 0 -i 38 -a 0 -x {1.0 3.1 -1 ------- null}
r -t 1.13008 -s 1 -d 2 -p cbr -e 1000 -c 0 -i 29 -a 0 -x {1.0 3.1 15 ------- null}
+ -t 1.13008 -s 2 -d 3 -p cbr -e 1000 -c 0 -i 29 -a 0 -x {1.0 3.1 15 ------- null}
- -t 1.13008 -s 2 -d 3 -p cbr -e 1000 -c 0 -i 29 -a 0 -x {1.0 3.1 15 ------- null}
h -t 1.13008 -s 2 -d 3 -p cbr -e 1000 -c 0 -i 29 -a 0 -x {1.0 3.1 -1 ------- null}
r -t 1.13288 -s 2 -d 3 -p cbr -e 1000 -c 0 -i 28 -a 0 -x {1.0 3.1 14 ------- null}
r -t 1.1336608 -s 0 -d 2 -p tcp -e 1540 -c 0 -i 30 -a 0 -x {0.0 3.0 7 ------- null}
+ -t 1.1336608 -s 2 -d 3 -p tcp -e 1540 -c 0 -i 30 -a 0 -x {0.0 3.0 7 ------- null}
- -t 1.1336608 -s 2 -d 3 -p tcp -e 1540 -c 0 -i 30 -a 0 -x {0.0 3.0 7 ------- null}
h -t 1.1336608 -s 2 -d 3 -p tcp -e 1540 -c 0 -i 30 -a 0 -x {0.0 3.0 -1 ------- null}
r -t 1.133784 -s 0 -d 2 -p tcp -e 1540 -c 0 -i 31 -a 0 -x {0.0 3.0 8 ------- null}
+ -t 1.133784 -s 2 -d 3 -p tcp -e 1540 -c 0 -i 31 -a 0 -x {0.0 3.0 8 ------- null}
r -t 1.1348928 -s 0 -d 2 -p tcp -e 1540 -c 0 -i 32 -a 0 -x {0.0 3.0 9 ------- null}
+ -t 1.1348928 -s 2 -d 3 -p tcp -e 1540 -c 0 -i 32 -a 0 -x {0.0 3.0 9 ------- null}
- -t 1.1348928 -s 2 -d 3 -p tcp -e 1540 -c 0 -i 31 -a 0 -x {0.0 3.0 8 ------- null}
h -t 1.1348928 -s 2 -d 3 -p tcp -e 1540 -c 0 -i 31 -a 0 -x {0.0 3.0 -1 ------- null}
r -t 1.135016 -s 0 -d 2 -p tcp -e 1540 -c 0 -i 33 -a 0 -x {0.0 3.0 10 ------- null}
+ -t 1.135016 -s 2 -d 3 -p tcp -e 1540 -c 0 -i 33 -a 0 -x {0.0 3.0 10 ------- null}
+ -t 1.136 -s 1 -d 2 -p cbr -e 1000 -c 0 -i 39 -a 0 -x {1.0 3.1 17 ------- null}
- -t 1.136 -s 1 -d 2 -p cbr -e 1000 -c 0 -i 39 -a 0 -x {1.0 3.1 17 ------- null}
h -t 1.136 -s 1 -d 2 -p cbr -e 1000 -c 0 -i 39 -a 0 -x {1.0 3.1 -1 ------- null}
r -t 1.1361248 -s 0 -d 2 -p tcp -e 1540 -c 0 -i 34 -a 0 -x {0.0 3.0 11 ------- null}
+ -t 1.1361248 -s 2 -d 3 -p tcp -e 1540 -c 0 -i 34 -a 0 -x {0.0 3.0 11 ------- null}
- -t 1.1361248 -s 2 -d 3 -p tcp -e 1540 -c 0 -i 32 -a 0 -x {0.0 3.0 9 ------- null}
h -t 1.1361248 -s 2 -d 3 -p tcp -e 1540 -c 0 -i 32 -a 0 -x {0.0 3.0 -1 ------- null}
r -t 1.136248 -s 0 -d 2 -p tcp -e 1540 -c 0 -i 35 -a 0 -x {0.0 3.0 12 ------- null}
+ -t 1.136248 -s 2 -d 3 -p tcp -e 1540 -c 0 -i 35 -a 0 -x {0.0 3.0 12 ------- null}
r -t 1.1373568 -s 0 -d 2 -p tcp -e 1540 -c 0 -i 36 -a 0 -x {0.0 3.0 13 ------- null}
+ -t 1.1373568 -s 2 -d 3 -p tcp -e 1540 -c 0 -i 36 -a 0 -x {0.0 3.0 13 ------- null}
- -t 1.1373568 -s 2 -d 3 -p tcp -e 1540 -c 0 -i 33 -a 0 -x {0.0 3.0 10 ------- null}
h -t 1.1373568 -s 2 -d 3 -p tcp -e 1540 -c 0 -i 33 -a 0 -x {0.0 3.0 -1 ------- null}
r -t 1.13748 -s 0 -d 2 -p tcp -e 1540 -c 0 -i 37 -a 0 -x {0.0 3.0 14 ------- null}
+ -t 1.13748 -s 2 -d 3 -p tcp -e 1540 -c 0 -i 37 -a 0 -x {0.0 3.0 14 ------- null}
r -t 1.13808 -s 1 -d 2 -p cbr -e 1000 -c 0 -i 38 -a 0 -x {1.0 3.1 16 ------- null}
+ -t 1.13808 -s 2 -d 3 -p cbr -e 1000 -c 0 -i 38 -a 0 -x {1.0 3.1 16 ------- null}
- -t 1.1385888 -s 2 -d 3 -p tcp -e 1540 -c 0 -i 34 -a 0 -x {0.0 3.0 11 ------- null}
h -t 1.1385888 -s 2 -d 3 -p tcp -e 1540 -c 0 -i 34 -a 0 -x {0.0 3.0 -1 ------- null}
- -t 1.1398208 -s 2 -d 3 -p tcp -e 1540 -c 0 -i 35 -a 0 -x {0.0 3.0 12 ------- null}
h -t 1.1398208 -s 2 -d 3 -p tcp -e 1540 -c 0 -i 35 -a 0 -x {0.0 3.0 -1 ------- null}
r -t 1.14088 -s 2 -d 3 -p cbr -e 1000 -c 0 -i 29 -a 0 -x {1.0 3.1 15 ------- null}
- -t 1.1410528 -s 2 -d 3 -p tcp -e 1540 -c 0 -i 36 -a 0 -x {0.0 3.0 13 ------- null}
h -t 1.1410528 -s 2 -d 3 -p tcp -e 1540 -c 0 -i 36 -a 0 -x {0.0 3.0 -1 ------- null}
- -t 1.1422848 -s 2 -d 3 -p tcp -e 1540 -c 0 -i 37 -a 0 -x {0.0 3.0 14 ------- null}
h -t 1.1422848 -s 2 -d 3 -p tcp -e 1540 -c 0 -i 37 -a 0 -x {0.0 3.0 -1 ------- null}
- -t 1.1435168 -s 2 -d 3 -p cbr -e 1000 -c 0 -i 38 -a 0 -x {1.0 3.1 16 ------- null}
h -t 1.1435168 -s 2 -d 3 -p cbr -e 1000 -c 0 -i 38 -a 0 -x {1.0 3.1 -1 ------- null}
+ -t 1.144 -s 1 -d 2 -p cbr -e 1000 -c 0 -i 40 -a 0 -x {1.0 3.1 18 ------- null}
- -t 1.144 -s 1 -d 2 -p cbr -e 1000 -c 0 -i 40 -a 0 -x {1.0 3.1 18 ------- null}
h -t 1.144 -s 1 -d 2 -p cbr -e 1000 -c 0 -i 40 -a 0 -x {1.0 3.1 -1 ------- null}
r -t 1.1448928 -s 2 -d 3 -p tcp -e 1540 -c 0 -i 30 -a 0 -x {0.0 3.0 7 ------- null}
+ -t 1.1448928 -s 3 -d 2 -p ack -e 40 -c 0 -i 41 -a 0 -x {3.0 0.0 7 ------- null}
- -t 1.1448928 -s 3 -d 2 -p ack -e 40 -c 0 -i 41 -a 0 -x {3.0 0.0 7 ------- null}
h -t 1.1448928 -s 3 -d 2 -p ack -e 40 -c 0 -i 41 -a 0 -x {3.0 0.0 -1 ------- null}
r -t 1.14608 -s 1 -d 2 -p cbr -e 1000 -c 0 -i 39 -a 0 -x {1.0 3.1 17 ------- null}
+ -t 1.14608 -s 2 -d 3 -p cbr -e 1000 -c 0 -i 39 -a 0 -x {1.0 3.1 17 ------- null}
- -t 1.14608 -s 2 -d 3 -p cbr -e 1000 -c 0 -i 39 -a 0 -x {1.0 3.1 17 ------- null}
h -t 1.14608 -s 2 -d 3 -p cbr -e 1000 -c 0 -i 39 -a 0 -x {1.0 3.1 -1 ------- null}
r -t 1.1461248 -s 2 -d 3 -p tcp -e 1540 -c 0 -i 31 -a 0 -x {0.0 3.0 8 ------- null}
+ -t 1.1461248 -s 3 -d 2 -p ack -e 40 -c 0 -i 42 -a 0 -x {3.0 0.0 8 ------- null}
- -t 1.1461248 -s 3 -d 2 -p ack -e 40 -c 0 -i 42 -a 0 -x {3.0 0.0 8 ------- null}
h -t 1.1461248 -s 3 -d 2 -p ack -e 40 -c 0 -i 42 -a 0 -x {3.0 0.0 -1 ------- null}
r -t 1.1473568 -s 2 -d 3 -p tcp -e 1540 -c 0 -i 32 -a 0 -x {0.0 3.0 9 ------- null}
+ -t 1.1473568 -s 3 -d 2 -p ack -e 40 -c 0 -i 43 -a 0 -x {3.0 0.0 9 ------- null}
- -t 1.1473568 -s 3 -d 2 -p ack -e 40 -c 0 -i 43 -a 0 -x {3.0 0.0 9 ------- null}
h -t 1.1473568 -s 3 -d 2 -p ack -e 40 -c 0 -i 43 -a 0 -x {3.0 0.0 -1 ------- null}
r -t 1.1485888 -s 2 -d 3 -p tcp -e 1540 -c 0 -i 33 -a 0 -x {0.0 3.0 10 ------- null}
+ -t 1.1485888 -s 3 -d 2 -p ack -e 40 -c 0 -i 44 -a 0 -x {3.0 0.0 10 ------- null}
- -t 1.1485888 -s 3 -d 2 -p ack -e 40 -c 0 -i 44 -a 0 -x {3.0 0.0 10 ------- null}
h -t 1.1485888 -s 3 -d 2 -p ack -e 40 -c 0 -i 44 -a 0 -x {3.0 0.0 -1 ------- null}
r -t 1.1498208 -s 2 -d 3 -p tcp -e 1540 -c 0 -i 34 -a 0 -x {0.0 3.0 11 ------- null}
+ -t 1.1498208 -s 3 -d 2 -p ack -e 40 -c 0 -i 45 -a 0 -x {3.0 0.0 11 ------- null}
- -t 1.1498208 -s 3 -d 2 -p ack -e 40 -c 0 -i 45 -a 0 -x {3.0 0.0 11 ------- null}
h -t 1.1498208 -s 3 -d 2 -p ack -e 40 -c 0 -i 45 -a 0 -x {3.0 0.0 -1 ------- null}
r -t 1.1510528 -s 2 -d 3 -p tcp -e 1540 -c 0 -i 35 -a 0 -x {0.0 3.0 12 ------- null}
+ -t 1.1510528 -s 3 -d 2 -p ack -e 40 -c 0 -i 46 -a 0 -x {3.0 0.0 12 ------- null}
- -t 1.1510528 -s 3 -d 2 -p ack -e 40 -c 0 -i 46 -a 0 -x {3.0 0.0 12 ------- null}
h -t 1.1510528 -s 3 -d 2 -p ack -e 40 -c 0 -i 46 -a 0 -x {3.0 0.0 -1 ------- null}
+ -t 1.152 -s 1 -d 2 -p cbr -e 1000 -c 0 -i 47 -a 0 -x {1.0 3.1 19 ------- null}
- -t 1.152 -s 1 -d 2 -p cbr -e 1000 -c 0 -i 47 -a 0 -x {1.0 3.1 19 ------- null}
h -t 1.152 -s 1 -d 2 -p cbr -e 1000 -c 0 -i 47 -a 0 -x {1.0 3.1 -1 ------- null}
r -t 1.1522848 -s 2 -d 3 -p tcp -e 1540 -c 0 -i 36 -a 0 -x {0.0 3.0 13 ------- null}
+ -t 1.1522848 -s 3 -d 2 -p ack -e 40 -c 0 -i 48 -a 0 -x {3.0 0.0 13 ------- null}
- -t 1.1522848 -s 3 -d 2 -p ack -e 40 -c 0 -i 48 -a 0 -x {3.0 0.0 13 ------- null}
h -t 1.1522848 -s 3 -d 2 -p ack -e 40 -c 0 -i 48 -a 0 -x {3.0 0.0 -1 ------- null}
r -t 1.1535168 -s 2 -d 3 -p tcp -e 1540 -c 0 -i 37 -a 0 -x {0.0 3.0 14 ------- null}
+ -t 1.1535168 -s 3 -d 2 -p ack -e 40 -c 0 -i 49 -a 0 -x {3.0 0.0 14 ------- null}
- -t 1.1535168 -s 3 -d 2 -p ack -e 40 -c 0 -i 49 -a 0 -x {3.0 0.0 14 ------- null}
h -t 1.1535168 -s 3 -d 2 -p ack -e 40 -c 0 -i 49 -a 0 -x {3.0 0.0 -1 ------- null}
r -t 1.15408 -s 1 -d 2 -p cbr -e 1000 -c 0 -i 40 -a 0 -x {1.0 3.1 18 ------- null}
+ -t 1.15408 -s 2 -d 3 -p cbr -e 1000 -c 0 -i 40 -a 0 -x {1.0 3.1 18 ------- null}
- -t 1.15408 -s 2 -d 3 -p cbr -e 1000 -c 0 -i 40 -a 0 -x {1.0 3.1 18 ------- null}
h -t 1.15408 -s 2 -d 3 -p cbr -e 1000 -c 0 -i 40 -a 0 -x {1.0 3.1 -1 ------- null}
r -t 1.1543168 -s 2 -d 3 -p cbr -e 1000 -c 0 -i 38 -a 0 -x {1.0 3.1 16 ------- null}
r -t 1.1549248 -s 3 -d 2 -p ack -e 40 -c 0 -i 41 -a 0 -x {3.0 0.0 7 ------- null}
+ -t 1.1549248 -s 2 -d 0 -p ack -e 40 -c 0 -i 41 -a 0 -x {3.0 0.0 7 ------- null}
- -t 1.1549248 -s 2 -d 0 -p ack -e 40 -c 0 -i 41 -a 0 -x {3.0 0.0 7 ------- null}
h -t 1.1549248 -s 2 -d 0 -p ack -e 40 -c 0 -i 41 -a 0 -x {3.0 0.0 -1 ------- null}
r -t 1.1561568 -s 3 -d 2 -p ack -e 40 -c 0 -i 42 -a 0 -x {3.0 0.0 8 ------- null}