+ 1 0 2 tcp 40 ------- 0 0.0 3.0 0 0
- 1 0 2 tcp 40 ------- 0 0.0 3.0 0 0
+ 1 1 2 cbr 1000 ------- 0 1.0 3.1 0 1
- 1 1 2 cbr 1000 ------- 0 1.0 3.1 0 1
+ 1.008 1 2 cbr 1000 ------- 0 1.0 3.1 1 2
- 1.008 1 2 cbr 1000 ------- 0 1.0 3.1 1 2
r 1.010003 0 2 tcp 40 ------- 0 0.0 3.0 0 0
+ 1.010003 2 3 tcp 40 ------- 0 0.0 3.0 0 0
- 1.010003 2 3 tcp 40 ------- 0 0.0 3.0 0 0
r 1.01008 1 2 cbr 1000 ------- 0 1.0 3.1 0 1
+ 1.01008 2 3 cbr 1000 ------- 0 1.0 3.1 0 1
- 1.01008 2 3 cbr 1000 ------- 0 1.0 3.1 0 1
+ 1.016 1 2 cbr 1000 ------- 0 1.0 3.1 2 3
- 1.016 1 2 cbr 1000 ------- 0 1.0 3.1 2 3
r 1.01808 1 2 cbr 1000 ------- 0 1.0 3.1 1 2
+ 1.01808 2 3 cbr 1000 ------- 0 1.0 3.1 1 2
- 1.01808 2 3 cbr 1000 ------- 0 1.0 3.1 1 2
r 1.020035 2 3 tcp 40 ------- 0 0.0 3.0 0 0
+ 1.020035 3 2 ack 40 ------- 0 3.0 0.0 0 4
- 1.020035 3 2 ack 40 ------- 0 3.0 0.0 0 4
r 1.02088 2 3 cbr 1000 ------- 0 1.0 3.1 0 1
+ 1.024 1 2 cbr 1000 ------- 0 1.0 3.1 3 5
- 1.024 1 2 cbr 1000 ------- 0 1.0 3.1 3 5
r 1.02608 1 2 cbr 1000 ------- 0 1.0 3.1 2 3
+ 1.02608 2 3 cbr 1000 ------- 0 1.0 3.1 2 3
- 1.02608 2 3 cbr 1000 ------- 0 1.0 3.1 2 3
r 1.02888 2 3 cbr 1000 ------- 0 1.0 3.1 1 2
r 1.030067 3 2 ack 40 ------- 0 3.0 0.0 0 4
+ 1.030067 2 0 ack 40 ------- 0 3.0 0.0 0 4
- 1.030067 2 0 ack 40 ------- 0 3.0 0.0 0 4
+ 1.032 1 2 cbr 1000 ------- 0 1.0 3.1 4 6
- 1.032 1 2 cbr 1000 ------- 0 1.0 3.1 4 6
r 1.03408 1 2 cbr 1000 ------- 0 1.0 3.1 3 5
+ 1.03408 2 3 cbr 1000 ------- 0 1.0 3.1 3 5
- 1.03408 2 3 cbr 1000 ------- 0 1.0 3.1 3 5
r 1.03688 2 3 cbr 1000 ------- 0 1.0 3.1 2 3
+ 1.04 1 2 cbr 1000 ------- 0 1.0 3.1 5 7
- 1.04 1 2 cbr 1000 ------- 0 1.0 3.1 5 7
r 1.04007 2 0 ack 40 ------- 0 3.0 0.0 0 4
+ 1.04007 0 2 tcp 1540 ------- 0 0.0 3.0 1 8
- 1.04007 0 2 tcp 1540 ------- 0 0.0 3.0 1 8
+ 1.04007 0 2 tcp 1540 ------- 0 0.0 3.0 2 9
- 1.040194 0 2 tcp 1540 ------- 0 0.0 3.0 2 9
r 1.04208 1 2 cbr 1000 ------- 0 1.0 3.1 4 6
+ 1.04208 2 3 cbr 1000 ------- 0 1.0 3.1 4 6
- 1.04208 2 3 cbr 1000 ------- 0 1.0 3.1 4 6
r 1.04488 2 3 cbr 1000 ------- 0 1.0 3.1 3 5
+ 1.048 1 2 cbr 1000 ------- 0 1.0 3.1 6 10
- 1.048 1 2 cbr 1000 ------- 0 1.0 3.1 6 10
r 1.05008 1 2 cbr 1000 ------- 0 1.0 3.1 5 7
+ 1.05008 2 3 cbr 1000 ------- 0 1.0 3.1 5 7
- 1.05008 2 3 cbr 1000 ------- 0 1.0 3.1 5 7
r 1.050194 0 2 tcp 1540 ------- 0 0.0 3.0 1 8
+ 1.050194 2 3 tcp 1540 ------- 0 0.0 3.0 1 8
r 1.050317 0 2 tcp 1540 ------- 0 0.0 3.0 2 9
+ 1.050317 2 3 tcp 1540 ------- 0 0.0 3.0 2 9
- 1.05088 2 3 tcp 1540 ------- 0 0.0 3.0 1 8
- 1.052112 2 3 tcp 1540 ------- 0 0.0 3.0 2 9
r 1.05288 2 3 cbr 1000 ------- 0 1.0 3.1 4 6
+ 1.056 1 2 cbr 1000 ------- 0 1.0 3.1 7 11
- 1.056 1 2 cbr 1000 ------- 0 1.0 3.1 7 11
r 1.05808 1 2 cbr 1000 ------- 0 1.0 3.1 6 10
+ 1.05808 2 3 cbr 1000 ------- 0 1.0 3.1 6 10
- 1.05808 2 3 cbr 1000 ------- 0 1.0 3.1 6 10
r 1.06088 2 3 cbr 1000 ------- 0 1.0 3.1 5 7
r 1.062112 2 3 tcp 1540 ------- 0 0.0 3.0 1 8
+ 1.062112 3 2 ack 40 ------- 0 3.0 0.0 1 12
- 1.062112 3 2 ack 40 ------- 0 3.0 0.0 1 12
r 1.063344 2 3 tcp 1540 ------- 0 0.0 3.0 2 9
+ 1.063344 3 2 ack 40 ------- 0 3.0 0.0 2 13
- 1.063344 3 2 ack 40 ------- 0 3.0 0.0 2 13
+ 1.064 1 2 cbr 1000 ------- 0 1.0 3.1 8 14
- 1.064 1 2 cbr 1000 ------- 0 1.0 3.1 8 14
r 1.06608 1 2 cbr 1000 ------- 0 1.0 3.1 7 11
+ 1.06608 2 3 cbr 1000 ------- 0 1.0 3.1 7 11
- 1.06608 2 3 cbr 1000 ------- 0 1.0 3.1 7 11
r 1.06888 2 3 cbr 1000 ------- 0 1.0 3.1 6 10
+ 1.072 1 2 cbr 1000 ------- 0 1.0 3.1 9 15
- 1.072 1 2 cbr 1000 ------- 0 1.0 3.1 9 15
r 1.072144 3 2 ack 40 ------- 0 3.0 0.0 1 12
+ 1.072144 2 0 ack 40 ------- 0 3.0 0.0 1 12
- 1.072144 2 0 ack 40 ------- 0 3.0 0.0 1 12
r 1.073376 3 2 ack 40 ------- 0 3.0 0.0 2 13
+ 1.073376 2 0 ack 40 ------- 0 3.0 0.0 2 13
- 1.073376 2 0 ack 40 ------- 0 3.0 0.0 2 13
r 1.07408 1 2 cbr 1000 ------- 0 1.0 3.1 8 14
+ 1.07408 2 3 cbr 1000 ------- 0 1.0 3.1 8 14
- 1.07408 2 3 cbr 1000 ------- 0 1.0 3.1 8 14
r 1.07688 2 3 cbr 1000 ------- 0 1.0 3.1 7 11
+ 1.08 1 2 cbr 1000 ------- 0 1.0 3.1 10 16
- 1.08 1 2 cbr 1000 ------- 0 1.0 3.1 10 16
r 1.08208 1 2 cbr 1000 ------- 0 1.0 3.1 9 15
+ 1.08208 2 3 cbr 1000 ------- 0 1.0 3.1 9 15
- 1.08208 2 3 cbr 1000 ------- 0 1.0 3.1 9 15
r 1.082147 2 0 ack 40 ------- 0 3.0 0.0 1 12
+ 1.082147 0 2 tcp 1540 ------- 0 0.0 3.0 3 17
- 1.082147 0 2 tcp 1540 ------- 0 0.0 3.0 3 17
+ 1.082147 0 2 tcp 1540 ------- 0 0.0 3.0 4 18
- 1.08227 0 2 tcp 1540 ------- 0 0.0 3.0 4 18
r 1.083379 2 0 ack 40 ------- 0 3.0 0.0 2 13
+ 1.083379 0 2 tcp 1540 ------- 0 0.0 3.0 5 19
- 1.083379 0 2 tcp 1540 ------- 0 0.0 3.0 5 19
+ 1.083379 0 2 tcp 1540 ------- 0 0.0 3.0 6 20
- 1.083502 0 2 tcp 1540 ------- 0 0.0 3.0 6 20
r 1.08488 2 3 cbr 1000 ------- 0 1.0 3.1 8 14
+ 1.088 1 2 cbr 1000 ------- 0 1.0 3.1 11 21
- 1.088 1 2 cbr 1000 ------- 0 1.0 3.1 11 21
r 1.09008 1 2 cbr 1000 ------- 0 1.0 3.1 10 16
+ 1.09008 2 3 cbr 1000 ------- 0 1.0 3.1 10 16
- 1.09008 2 3 cbr 1000 ------- 0 1.0 3.1 10 16
r 1.09227 0 2 tcp 1540 ------- 0 0.0 3.0 3 17
+ 1.09227 2 3 tcp 1540 ------- 0 0.0 3.0 3 17
- 1.09227 2 3 tcp 1540 ------- 0 0.0 3.0 3 17
r 1.092394 0 2 tcp 1540 ------- 0 0.0 3.0 4 18
+ 1.092394 2 3 tcp 1540 ------- 0 0.0 3.0 4 18
r 1.09288 2 3 cbr 1000 ------- 0 1.0 3.1 9 15
r 1.093502 0 2 tcp 1540 ------- 0 0.0 3.0 5 19
+ 1.093502 2 3 tcp 1540 ------- 0 0.0 3.0 5 19
- 1.093502 2 3 tcp 1540 ------- 0 0.0 3.0 4 18
r 1.093626 0 2 tcp 1540 ------- 0 0.0 3.0 6 20
+ 1.093626 2 3 tcp 1540 ------- 0 0.0 3.0 6 20
- 1.094734 2 3 tcp 1540 ------- 0 0.0 3.0 5 19
- 1.095966 2 3 tcp 1540 ------- 0 0.0 3.0 6 20
+ 1.096 1 2 cbr 1000 ------- 0 1.0 3.1 12 22
- 1.096 1 2 cbr 1000 ------- 0 1.0 3.1 12 22
r 1.09808 1 2 cbr 1000 ------- 0 1.0 3.1 11 21
+ 1.09808 2 3 cbr 1000 ------- 0 1.0 3.1 11 21
- 1.09808 2 3 cbr 1000 ------- 0 1.0 3.1 11 21
r 1.10088 2 3 cbr 1000 ------- 0 1.0 3.1 10 16
r 1.103502 2 3 tcp 1540 ------- 0 0.0 3.0 3 17
+ 1.103502 3 2 ack 40 ------- 0 3.0 0.0 3 23
- 1.103502 3 2 ack 40 ------- 0 3.0 0.0 3 23
+ 1.104 1 2 cbr 1000 ------- 0 1.0 3.1 13 24
- 1.104 1 2 cbr 1000 ------- 0 1.0 3.1 13 24
r 1.104734 2 3 tcp 1540 ------- 0 0.0 3.0 4 18
+ 1.104734 3 2 ack 40 ------- 0 3.0 0.0 4 25
- 1.104734 3 2 ack 40 ------- 0 3.0 0.0 4 25
r 1.105966 2 3 tcp 1540 ------- 0 0.0 3.0 5 19
+ 1.105966 3 2 ack 40 ------- 0 3.0 0.0 5 26
- 1.105966 3 2 ack 40 ------- 0 3.0 0.0 5 26
r 1.10608 1 2 cbr 1000 ------- 0 1.0 3.1 12 22
+ 1.10608 2 3 cbr 1000 ------- 0 1.0 3.1 12 22
- 1.10608 2 3 cbr 1000 ------- 0 1.0 3.1 12 22
r 1.107198 2 3 tcp 1540 ------- 0 0.0 3.0 6 20
+ 1.107198 3 2 ack 40 ------- 0 3.0 0.0 6 27
- 1.107198 3 2 ack 40 ------- 0 3.0 0.0 6 27
r 1.10888 2 3 cbr 1000 ------- 0 1.0 3.1 11 21
+ 1.112 1 2 cbr 1000 ------- 0 1.0 3.1 14 28
- 1.112 1 2 cbr 1000 ------- 0 1.0 3.1 14 28
r 1.113534 3 2 ack 40 ------- 0 3.0 0.0 3 23
+ 1.113534 2 0 ack 40 ------- 0 3.0 0.0 3 23
- 1.113534 2 0 ack 40 ------- 0 3.0 0.0 3 23
r 1.11408 1 2 cbr 1000 ------- 0 1.0 3.1 13 24
+ 1.11408 2 3 cbr 1000 ------- 0 1.0 3.1 13 24
- 1.11408 2 3 cbr 1000 ------- 0 1.0 3.1 13 24
r 1.114766 3 2 ack 40 ------- 0 3.0 0.0 4 25
+ 1.114766 2 0 ack 40 ------- 0 3.0 0.0 4 25
- 1.114766 2 0 ack 40 ------- 0 3.0 0.0 4 25
r 1.115998 3 2 ack 40 ------- 0 3.0 0.0 5 26
+ 1.115998 2 0 ack 40 ------- 0 3.0 0.0 5 26
- 1.115998 2 0 ack 40 ------- 0 3.0 0.0 5 26
r 1.11688 2 3 cbr 1000 ------- 0 1.0 3.1 12 22
r 1.11723 3 2 ack 40 ------- 0 3.0 0.0 6 27
+ 1.11723 2 0 ack 40 ------- 0 3.0 0.0 6 27
- 1.11723 2 0 ack 40 ------- 0 3.0 0.0 6 27
+ 1.12 1 2 cbr 1000 ------- 0 1.0 3.1 15 29
- 1.12 1 2 cbr 1000 ------- 0 1.0 3.1 15 29
r 1.12208 1 2 cbr 1000 ------- 0 1.0 3.1 14 28
+ 1.12208 2 3 cbr 1000 ------- 0 1.0 3.1 14 28
- 1.12208 2 3 cbr 1000 ------- 0 1.0 3.1 14 28
r 1.123538 2 0 ack 40 ------- 0 3.0 0.0 3 23
+ 1.123538 0 2 tcp 1540 ------- 0 0.0 3.0 7 30
- 1.123538 0 2 tcp 1540 ------- 0 0.0 3.0 7 30
+ 1.123538 0 2 tcp 1540 ------- 0 0.0 3.0 8 31
- 1.123661 0 2 tcp 1540 ------- 0 0.0 3.0 8 31
r 1.12477 2 0 ack 40 ------- 0 3.0 0.0 4 25
+ 1.12477 0 2 tcp 1540 ------- 0 0.0 3.0 9 32
- 1.12477 0 2 tcp 1540 ------- 0 0.0 3.0 9 32
+ 1.12477 0 2 tcp 1540 ------- 0 0.0 3.0 10 33
r 1.12488 2 3 cbr 1000 ------- 0 1.0 3.1 13 24
- 1.124893 0 2 tcp 1540 ------- 0 0.0 3.0 10 33
r 1.126002 2 0 ack 40 ------- 0 3.0 0.0 5 26
+ 1.126002 0 2 tcp 1540 ------- 0 0.0 3.0 11 34
- 1.126002 0 2 tcp 1540 ------- 0 0.0 3.0 11 34
+ 1.126002 0 2 tcp 1540 ------- 0 0.0 3.0 12 35
- 1.126125 0 2 tcp 1540 ------- 0 0.0 3.0 12 35
r 1.127234 2 0 ack 40 ------- 0 3.0 0.0 6 27
+ 1.127234 0 2 tcp 1540 ------- 0 0.0 3.0 13 36
- 1.127234 0 2 tcp 1540 ------- 0 0.0 3.0 13 36
+ 1.127234 0 2 tcp 1540 ------- 0 0.0 3.0 14 37
- 1.127357 0 2 tcp 1540 ------- 0 0.0 3.0 14 37
+ 1.128 1 2 cbr 1000 ------- 0 1.0 3.1 16 38
- 1.128 1 2 cbr 1000 ------- 0 1.0 3.1 16 38
r 1.13008 1 2 cbr 1000 ------- 0 1.0 3.1 15 29
+ 1.13008 2 3 cbr 1000 ------- 0 1.0 3.1 15 29
- 1.13008 2 3 cbr 1000 ------- 0 1.0 3.1 15 29
r 1.13288 2 3 cbr 1000 ------- 0 1.0 3.1 14 28
r 1.133661 0 2 tcp 1540 ------- 0 0.0 3.0 7 30
+ 1.133661 2 3 tcp 1540 ------- 0 0.0 3.0 7 30
- 1.133661 2 3 tcp 1540 ------- 0 0.0 3.0 7 30
r 1.133784 0 2 tcp 1540 ------- 0 0.0 3.0 8 31
+ 1.133784 2 3 tcp 1540 ------- 0 0.0 3.0 8 31
r 1.134893 0 2 tcp 1540 ------- 0 0.0 3.0 9 32
+ 1.134893 2 3 tcp 1540 ------- 0 0.0 3.0 9 32
- 1.134893 2 3 tcp 1540 ------- 0 0.0 3.0 8 31
r 1.135016 0 2 tcp 1540 ------- 0 0.0 3.0 10 33
+ 1.135016 2 3 tcp 1540 ------- 0 0.0 3.0 10 33
+ 1.136 1 2 cbr 1000 ------- 0 1.0 3.1 17 39
- 1.136 1 2 cbr 1000 ------- 0 1.0 3.1 17 39
r 1.136125 0 2 tcp 1540 ------- 0 0.0 3.0 11 34
+ 1.136125 2 3 tcp 1540 ------- 0 0.0 3.0 11 34
- 1.136125 2 3 tcp 1540 ------- 0 0.0 3.0 9 32
r 1.136248 0 2 tcp 1540 ------- 0 0.0 3.0 12 35
+ 1.136248 2 3 tcp 1540 ------- 0 0.0 3.0 12 35
r 1.137357 0 2 tcp 1540 ------- 0 0.0 3.0 13 36
+ 1.137357 2 3 tcp 1540 ------- 0 0.0 3.0 13 36
- 1.137357 2 3 tcp 1540 ------- 0 0.0 3.0 10 33
r 1.13748 0 2 tcp 1540 ------- 0 0.0 3.0 14 37
+ 1.13748 2 3 tcp 1540 ------- 0 0.0 3.0 14 37
r 1.13808 1 2 cbr 1000 ------- 0 1.0 3.1 16 38
+ 1.13808 2 3 cbr 1000 ------- 0 1.0 3.1 16 38
- 1.138589 2 3 tcp 1540 ------- 0 0.0 3.0 11 34
- 1.139821 2 3 tcp 1540 ------- 0 0.0 3.0 12 35
r 1.14088 2 3 cbr 1000 ------- 0 1.0 3.1 15 29
- 1.141053 2 3 tcp 1540 ------- 0 0.0 3.0 13 36
- 1.142285 2 3 tcp 1540 ------- 0 0.0 3.0 14 37
- 1.143517 2 3 cbr 1000 ------- 0 1.0 3.1 16 38
+ 1.144 1 2 cbr 1000 ------- 0 1.0 3.1 18 40
- 1.144 1 2 cbr 1000 ------- 0 1.0 3.1 18 40
r 1.144893 2 3 tcp 1540 ------- 0 0.0 3.0 7 30
+ 1.144893 3 2 ack 40 ------- 0 3.0 0.0 7 41
- 1.144893 3 2 ack 40 ------- 0 3.0 0.0 7 41
r 1.14608 1 2 cbr 1000 ------- 0 1.0 3.1 17 39
+ 1.14608 2 3 cbr 1000 ------- 0 1.0 3.1 17 39
- 1.14608 2 3 cbr 1000 ------- 0 1.0 3.1 17 39
r 1.146125 2 3 tcp 1540 ------- 0 0.0 3.0 8 31
+ 1.146125 3 2 ack 40 ------- 0 3.0 0.0 8 42
- 1.146125 3 2 ack 40 ------- 0 3.0 0.0 8 42
r 1.147357 2 3 tcp 1540 ------- 0 0.0 3.0 9 32
+ 1.147357 3 2 ack 40 ------- 0 3.0 0.0 9 43
- 1.147357 3 2 ack 40 ------- 0 3.0 0.0 9 43
r 1.148589 2 3 tcp 1540 ------- 0 0.0 3.0 10 33
+ 1.148589 3 2 ack 40 ------- 0 3.0 0.0 10 44
- 1.148589 3 2 ack 40 ------- 0 3.0 0.0 10 44
r 1.149821 2 3 tcp 1540 ------- 0 0.0 3.0 11 34
+ 1.149821 3 2 ack 40 ------- 0 3.0 0.0 11 45
- 1.149821 3 2 ack 40 ------- 0 3.0 0.0 11 45
r 1.151053 2 3 tcp 1540 ------- 0 0.0 3.0 12 35
+ 1.151053 3 2 ack 40 ------- 0 3.0 0.0 12 46
- 1.151053 3 2 ack 40 ------- 0 3.0 0.0 12 46
+ 1.152 1 2 cbr 1000 ------- 0 1.0 3.1 19 47
- 1.152 1 2 cbr 1000 ------- 0 1.0 3.1 19 47
r 1.152285 2 3 tcp 1540 ------- 0 0.0 3.0 13 36
+ 1.152285 3 2 ack 40 ------- 0 3.0 0.0 13 48
- 1.152285 3 2 ack 40 ------- 0 3.0 0.0 13 48
r 1.153517 2 3 tcp 1540 ------- 0 0.0 3.0 14 37
+ 1.153517 3 2 ack 40 ------- 0 3.0 0.0 14 49
- 1.153517 3 2 ack 40 ------- 0 3.0 0.0 14 49
r 1.15408 1 2 cbr 1000 ------- 0 1.0 3.1 18 40
+ 1.15408 2 3 cbr 1000 ------- 0 1.0 3.1 18 40
- 1.15408 2 3 cbr 1000 ------- 0 1.0 3.1 18 40
r 1.154317 2 3 cbr 1000 ------- 0 1.0 3.1 16 38
r 1.154925 3 2 ack 40 ------- 0 3.0 0.0 7 41
+ 1.154925 2 0 ack 40 ------- 0 3.0 0.0 7 41
- 1.154925 2 0 ack 40 ------- 0 3.0 0.0 7 41
r 1.156157 3 2 ack 40 ------- 0 3.0 0.0 8 42
+ 1.156157 2 0 ack 40 ------- 0 3.0 0.0 8 42
- 1.156157 2 0 ack 40 ------- 0 3.0 0.0 8 42
r 1.15688 2 3 cbr 1000 ------- 0 1.0 3.1 17 39
r 1.157389 3 2 ack 40 ------- 0 3.0 0.0 9 43
+ 1.157389 2 0 ack 40 ------- 0 3.0 0.0 9 43
- 1.157389 2 0 ack 40 ------- 0 3.0 0.0 9 43
r 1.158621 3 2 ack 40 ------- 0 3.0 0.0 10 44
+ 1.158621 2 0 ack 40 ------- 0 3.0 0.0 10 44
- 1.158621 2 0 ack 40 ------- 0 3.0 0.0 10 44
r 1.159853 3 2 ack 40 ------- 0 3.0 0.0 11 45
+ 1.159853 2 0 ack 40 ------- 0 3.0 0.0 11 45
- 1.159853 2 0 ack 40 ------- 0 3.0 0.0 11 45
+ 1.16 1 2 cbr 1000 ------- 0 1.0 3.1 20 50
- 1.16 1 2 cbr 1000 ------- 0 1.0 3.1 20 50
r 1.161085 3 2 ack 40 ------- 0 3.0 0.0 12 46
+ 1.161085 2 0 ack 40 ------- 0 3.0 0.0 12 46
- 1.161085 2 0 ack 40 ------- 0 3.0 0.0 12 46
r 1.16208 1 2 cbr 1000 ------- 0 1.0 3.1 19 47
+ 1.16208 2 3 cbr 1000 ------- 0 1.0 3.1 19 47
- 1.16208 2 3 cbr 1000 ------- 0 1.0 3.1 19 47
r 1.162317 3 2 ack 40 ------- 0 3.0 0.0 13 48
+ 1.162317 2 0 ack 40 ------- 0 3.0 0.0 13 48
- 1.162317 2 0 ack 40 ------- 0 3.0 0.0 13 48
r 1.163549 3 2 ack 40 ------- 0 3.0 0.0 14 49
+ 1.163549 2 0 ack 40 ------- 0 3.0 0.0 14 49
- 1.163549 2 0 ack 40 ------- 0 3.0 0.0 14 49
r 1.16488 2 3 cbr 1000 ------- 0 1.0 3.1 18 40
r 1.164928 2 0 ack 40 ------- 0 3.0 0.0 7 41
+ 1.164928 0 2 tcp 1540 ------- 0 0.0 3.0 15 51
- 1.164928 0 2 tcp 1540 ------- 0 0.0 3.0 15 51
+ 1.164928 0 2 tcp 1540 ------- 0 0.0 3.0 16 52
- 1.165051 0 2 tcp 1540 ------- 0 0.0 3.0 16 52
r 1.16616 2 0 ack 40 ------- 0 3.0 0.0 8 42
+ 1.16616 0 2 tcp 1540 ------- 0 0.0 3.0 17 53
- 1.16616 0 2 tcp 1540 ------- 0 0.0 3.0 17 53
+ 1.16616 0 2 tcp 1540 ------- 0 0.0 3.0 18 54
- 1.166283 0 2 tcp 1540 ------- 0 0.0 3.0 18 54
r 1.167392 2 0 ack 40 ------- 0 3.0 0.0 9 43
+ 1.167392 0 2 tcp 1540 ------- 0 0.0 3.0 19 55
- 1.167392 0 2 tcp 1540 ------- 0 0.0 3.0 19 55
+ 1.167392 0 2 tcp 1540 ------- 0 0.0 3.0 20 56
- 1.167515 0 2 tcp 1540 ------- 0 0.0 3.0 20 56
+ 1.168 1 2 cbr 1000 ------- 0 1.0 3.1 21 57
- 1.168 1 2 cbr 1000 ------- 0 1.0 3.1 21 57
r 1.168624 2 0 ack 40 ------- 0 3.0 0.0 10 44
+ 1.168624 0 2 tcp 1540 ------- 0 0.0 3.0 21 58
- 1.168624 0 2 tcp 1540 ------- 0 0.0 3.0 21 58
+ 1.168624 0 2 tcp 1540 ------- 0 0.0 3.0 22 59
- 1.168747 0 2 tcp 1540 ------- 0 0.0 3.0 22 59
r 1.169856 2 0 ack 40 ------- 0 3.0 0.0 11 45
+ 1.169856 0 2 tcp 1540 ------- 0 0.0 3.0 23 60
- 1.169856 0 2 tcp 1540 ------- 0 0.0 3.0 23 60
+ 1.169856 0 2 tcp 1540 ------- 0 0.0 3.0 24 61
- 1.169979 0 2 tcp 1540 ------- 0 0.0 3.0 24 61
r 1.17008 1 2 cbr 1000 ------- 0 1.0 3.1 20 50
+ 1.17008 2 3 cbr 1000 ------- 0 1.0 3.1 20 50
- 1.17008 2 3 cbr 1000 ------- 0 1.0 3.1 20 50
r 1.171088 2 0 ack 40 ------- 0 3.0 0.0 12 46
+ 1.171088 0 2 tcp 1540 ------- 0 0.0 3.0 25 62
- 1.171088 0 2 tcp 1540 ------- 0 0.0 3.0 25 62
+ 1.171088 0 2 tcp 1540 ------- 0 0.0 3.0 26 63
- 1.171211 0 2 tcp 1540 ------- 0 0.0 3.0 26 63
r 1.17232 2 0 ack 40 ------- 0 3.0 0.0 13 48
+ 1.17232 0 2 tcp 1540 ------- 0 0.0 3.0 27 64
- 1.17232 0 2 tcp 1540 ------- 0 0.0 3.0 27 64
+ 1.17232 0 2 tcp 1540 ------- 0 0.0 3.0 28 65
- 1.172443 0 2 tcp 1540 ------- 0 0.0 3.0 28 65
r 1.17288 2 3 cbr 1000 ------- 0 1.0 3.1 19 47
r 1.173552 2 0 ack 40 ------- 0 3.0 0.0 14 49
+ 1.173552 0 2 tcp 1540 ------- 0 0.0 3.0 29 66
- 1.173552 0 2 tcp 1540 ------- 0 0.0 3.0 29 66
+ 1.173552 0 2 tcp 1540 ------- 0 0.0 3.0 30 67
- 1.173675 0 2 tcp 1540 ------- 0 0.0 3.0 30 67
r 1.175051 0 2 tcp 1540 ------- 0 0.0 3.0 15 51
+ 1.175051 2 3 tcp 1540 ------- 0 0.0 3.0 15 51
- 1.175051 2 3 tcp 1540 ------- 0 0.0 3.0 15 51
r 1.175174 0 2 tcp 1540 ------- 0 0.0 3.0 16 52
+ 1.175174 2 3 tcp 1540 ------- 0 0.0 3.0 16 52
+ 1.176 1 2 cbr 1000 ------- 0 1.0 3.1 22 68
- 1.176 1 2 cbr 1000 ------- 0 1.0 3.1 22 68
r 1.176283 0 2 tcp 1540 ------- 0 0.0 3.0 17 53
+ 1.176283 2 3 tcp 1540 ------- 0 0.0 3.0 17 53
- 1.176283 2 3 tcp 1540 ------- 0 0.0 3.0 16 52
r 1.176406 0 2 tcp 1540 ------- 0 0.0 3.0 18 54
+ 1.176406 2 3 tcp 1540 ------- 0 0.0 3.0 18 54
r 1.177515 0 2 tcp 1540 ------- 0 0.0 3.0 19 55
+ 1.177515 2 3 tcp 1540 ------- 0 0.0 3.0 19 55
- 1.177515 2 3 tcp 1540 ------- 0 0.0 3.0 17 53
r 1.177638 0 2 tcp 1540 ------- 0 0.0 3.0 20 56
+ 1.177638 2 3 tcp 1540 ------- 0 0.0 3.0 20 56
r 1.17808 1 2 cbr 1000 ------- 0 1.0 3.1 21 57
+ 1.17808 2 3 cbr 1000 ------- 0 1.0 3.1 21 57
r 1.178747 0 2 tcp 1540 ------- 0 0.0 3.0 21 58
+ 1.178747 2 3 tcp 1540 ------- 0 0.0 3.0 21 58
- 1.178747 2 3 tcp 1540 ------- 0 0.0 3.0 18 54
r 1.17887 0 2 tcp 1540 ------- 0 0.0 3.0 22 59
+ 1.17887 2 3 tcp 1540 ------- 0 0.0 3.0 22 59
r 1.179979 0 2 tcp 1540 ------- 0 0.0 3.0 23 60
+ 1.179979 2 3 tcp 1540 ------- 0 0.0 3.0 23 60
- 1.179979 2 3 tcp 1540 ------- 0 0.0 3.0 19 55
r 1.180102 0 2 tcp 1540 ------- 0 0.0 3.0 24 61
+ 1.180102 2 3 tcp 1540 ------- 0 0.0 3.0 24 61
r 1.18088 2 3 cbr 1000 ------- 0 1.0 3.1 20 50
r 1.181211 0 2 tcp 1540 ------- 0 0.0 3.0 25 62
+ 1.181211 2 3 tcp 1540 ------- 0 0.0 3.0 25 62
- 1.181211 2 3 tcp 1540 ------- 0 0.0 3.0 20 56
r 1.181334 0 2 tcp 1540 ------- 0 0.0 3.0 26 63
+ 1.181334 2 3 tcp 1540 ------- 0 0.0 3.0 26 63
r 1.182443 0 2 tcp 1540 ------- 0 0.0 3.0 27 64
+ 1.182443 2 3 tcp 1540 ------- 0 0.0 3.0 27 64
- 1.182443 2 3 cbr 1000 ------- 0 1.0 3.1 21 57
r 1.182566 0 2 tcp 1540 ------- 0 0.0 3.0 28 65
+ 1.182566 2 3 tcp 1540 ------- 0 0.0 3.0 28 65
- 1.183243 2 3 tcp 1540 ------- 0 0.0 3.0 21 58
r 1.183675 0 2 tcp 1540 ------- 0 0.0 3.0 29 66
+ 1.183675 2 3 tcp 1540 ------- 0 0.0 3.0 29 66
r 1.183798 0 2 tcp 1540 ------- 0 0.0 3.0 30 67
+ 1.183798 2 3 tcp 1540 ------- 0 0.0 3.0 30 67
+ 1.184 1 2 cbr 1000 ------- 0 1.0 3.1 23 69
- 1.184 1 2 cbr 1000 ------- 0 1.0 3.1 23 69
- 1.184475 2 3 tcp 1540 ------- 0 0.0 3.0 22 59
- 1.185707 2 3 tcp 1540 ------- 0 0.0 3.0 23 60
r 1.18608 1 2 cbr 1000 ------- 0 1.0 3.1 22 68
+ 1.18608 2 3 cbr 1000 ------- 0 1.0 3.1 22 68
r 1.186283 2 3 tcp 1540 ------- 0 0.0 3.0 15 51
+ 1.186283 3 2 ack 40 ------- 0 3.0 0.0 15 70
- 1.186283 3 2 ack 40 ------- 0 3.0 0.0 15 70
- 1.186939 2 3 tcp 1540 ------- 0 0.0 3.0 24 61
r 1.187515 2 3 tcp 1540 ------- 0 0.0 3.0 16 52
+ 1.187515 3 2 ack 40 ------- 0 3.0 0.0 16 71
- 1.187515 3 2 ack 40 ------- 0 3.0 0.0 16 71
- 1.188171 2 3 tcp 1540 ------- 0 0.0 3.0 25 62
r 1.188747 2 3 tcp 1540 ------- 0 0.0 3.0 17 53
+ 1.188747 3 2 ack 40 ------- 0 3.0 0.0 17 72
- 1.188747 3 2 ack 40 ------- 0 3.0 0.0 17 72
- 1.189403 2 3 tcp 1540 ------- 0 0.0 3.0 26 63
r 1.189979 2 3 tcp 1540 ------- 0 0.0 3.0 18 54
+ 1.189979 3 2 ack 40 ------- 0 3.0 0.0 18 73
- 1.189979 3 2 ack 40 ------- 0 3.0 0.0 18 73
- 1.190635 2 3 tcp 1540 ------- 0 0.0 3.0 27 64
r 1.191211 2 3 tcp 1540 ------- 0 0.0 3.0 19 55
+ 1.191211 3 2 ack 40 ------- 0 3.0 0.0 19 74
- 1.191211 3 2 ack 40 ------- 0 3.0 0.0 19 74
- 1.191867 2 3 tcp 1540 ------- 0 0.0 3.0 28 65
+ 1.192 1 2 cbr 1000 ------- 0 1.0 3.1 24 75
- 1.192 1 2 cbr 1000 ------- 0 1.0 3.1 24 75
r 1.192443 2 3 tcp 1540 ------- 0 0.0 3.0 20 56
+ 1.192443 3 2 ack 40 ------- 0 3.0 0.0 20 76
- 1.192443 3 2 ack 40 ------- 0 3.0 0.0 20 76
- 1.193099 2 3 tcp 1540 ------- 0 0.0 3.0 29 66
r 1.193243 2 3 cbr 1000 ------- 0 1.0 3.1 21 57
r 1.19408 1 2 cbr 1000 ------- 0 1.0 3.1 23 69
+ 1.19408 2 3 cbr 1000 ------- 0 1.0 3.1 23 69
- 1.194331 2 3 tcp 1540 ------- 0 0.0 3.0 30 67
r 1.194475 2 3 tcp 1540 ------- 0 0.0 3.0 21 58
+ 1.194475 3 2 ack 40 ------- 0 3.0 0.0 21 77
- 1.194475 3 2 ack 40 ------- 0 3.0 0.0 21 77
- 1.195563 2 3 cbr 1000 ------- 0 1.0 3.1 22 68
r 1.195707 2 3 tcp 1540 ------- 0 0.0 3.0 22 59
+ 1.195707 3 2 ack 40 ------- 0 3.0 0.0 22 78
- 1.195707 3 2 ack 40 ------- 0 3.0 0.0 22 78
r 1.196315 3 2 ack 40 ------- 0 3.0 0.0 15 70
+ 1.196315 2 0 ack 40 ------- 0 3.0 0.0 15 70
- 1.196315 2 0 ack 40 ------- 0 3.0 0.0 15 70
- 1.196363 2 3 cbr 1000 ------- 0 1.0 3.1 23 69
r 1.196939 2 3 tcp 1540 ------- 0 0.0 3.0 23 60
+ 1.196939 3 2 ack 40 ------- 0 3.0 0.0 23 79
- 1.196939 3 2 ack 40 ------- 0 3.0 0.0 23 79
r 1.197547 3 2 ack 40 ------- 0 3.0 0.0 16 71
+ 1.197547 2 0 ack 40 ------- 0 3.0 0.0 16 71
- 1.197547 2 0 ack 40 ------- 0 3.0 0.0 16 71
r 1.198171 2 3 tcp 1540 ------- 0 0.0 3.0 24 61
+ 1.198171 3 2 ack 40 ------- 0 3.0 0.0 24 80
- 1.198171 3 2 ack 40 ------- 0 3.0 0.0 24 80
r 1.198779 3 2 ack 40 ------- 0 3.0 0.0 17 72
+ 1.198779 2 0 ack 40 ------- 0 3.0 0.0 17 72
- 1.198779 2 0 ack 40 ------- 0 3.0 0.0 17 72
r 1.199403 2 3 tcp 1540 ------- 0 0.0 3.0 25 62
+ 1.199403 3 2 ack 40 ------- 0 3.0 0.0 25 81
- 1.199403 3 2 ack 40 ------- 0 3.0 0.0 25 81
+ 1.2 1 2 cbr 1000 ------- 0 1.0 3.1 25 82
- 1.2 1 2 cbr 1000 ------- 0 1.0 3.1 25 82
r 1.200011 3 2 ack 40 ------- 0 3.0 0.0 18 73
+ 1.200011 2 0 ack 40 ------- 0 3.0 0.0 18 73
- 1.200011 2 0 ack 40 ------- 0 3.0 0.0 18 73
r 1.200635 2 3 tcp 1540 ------- 0 0.0 3.0 26 63
+ 1.200635 3 2 ack 40 ------- 0 3.0 0.0 26 83
- 1.200635 3 2 ack 40 ------- 0 3.0 0.0 26 83
r 1.201243 3 2 ack 40 ------- 0 3.0 0.0 19 74
+ 1.201243 2 0 ack 40 ------- 0 3.0 0.0 19 74
- 1.201243 2 0 ack 40 ------- 0 3.0 0.0 19 74
r 1.201867 2 3 tcp 1540 ------- 0 0.0 3.0 27 64
+ 1.201867 3 2 ack 40 ------- 0 3.0 0.0 27 84
- 1.201867 3 2 ack 40 ------- 0 3.0 0.0 27 84
r 1.20208 1 2 cbr 1000 ------- 0 1.0 3.1 24 75
+ 1.20208 2 3 cbr 1000 ------- 0 1.0 3.1 24 75
- 1.20208 2 3 cbr 1000 ------- 0 1.0 3.1 24 75
r 1.202475 3 2 ack 40 ------- 0 3.0 0.0 20 76
+ 1.202475 2 0 ack 40 ------- 0 3.0 0.0 20 76
- 1.202475 2 0 ack 40 ------- 0 3.0 0.0 20 76
r 1.203099 2 3 tcp 1540 ------- 0 0.0 3.0 28 65
+ 1.203099 3 2 ack 40 ------- 0 3.0 0.0 28 85
- 1.203099 3 2 ack 40 ------- 0 3.0 0.0 28 85
r 1.204331 2 3 tcp 1540 ------- 0 0.0 3.0 29 66
+ 1.204331 3 2 ack 40 ------- 0 3.0 0.0 29 86
- 1.204331 3 2 ack 40 ------- 0 3.0 0.0 29 86
r 1.204507 3 2 ack 40 ------- 0 3.0 0.0 21 77
+ 1.204507 2 0 ack 40 ------- 0 3.0 0.0 21 77
- 1.204507 2 0 ack 40 ------- 0 3.0 0.0 21 77
r 1.205563 2 3 tcp 1540 ------- 0 0.0 3.0 30 67
+ 1.205563 3 2 ack 40 ------- 0 3.0 0.0 30 87
- 1.205563 3 2 ack 40 ------- 0 3.0 0.0 30 87
r 1.205739 3 2 ack 40 ------- 0 3.0 0.0 22 78
+ 1.205739 2 0 ack 40 ------- 0 3.0 0.0 22 78
- 1.205739 2 0 ack 40 ------- 0 3.0 0.0 22 78
r 1.206318 2 0 ack 40 ------- 0 3.0 0.0 15 70
+ 1.206318 0 2 tcp 1540 ------- 0 0.0 3.0 31 88
- 1.206318 0 2 tcp 1540 ------- 0 0.0 3.0 31 88
+ 1.206318 0 2 tcp 1540 ------- 0 0.0 3.0 32 89
r 1.206363 2 3 cbr 1000 ------- 0 1.0 3.1 22 68
- 1.206442 0 2 tcp 1540 ------- 0 0.0 3.0 32 89
r 1.206971 3 2 ack 40 ------- 0 3.0 0.0 23 79
+ 1.206971 2 0 ack 40 ------- 0 3.0 0.0 23 79
- 1.206971 2 0 ack 40 ------- 0 3.0 0.0 23 79
r 1.207163 2 3 cbr 1000 ------- 0 1.0 3.1 23 69
r 1.20755 2 0 ack 40 ------- 0 3.0 0.0 16 71
+ 1.20755 0 2 tcp 1540 ------- 0 0.0 3.0 33 90
- 1.20755 0 2 tcp 1540 ------- 0 0.0 3.0 33 90
+ 1.20755 0 2 tcp 1540 ------- 0 0.0 3.0 34 91
- 1.207674 0 2 tcp 1540 ------- 0 0.0 3.0 34 91
+ 1.208 1 2 cbr 1000 ------- 0 1.0 3.1 26 92
- 1.208 1 2 cbr 1000 ------- 0 1.0 3.1 26 92
r 1.208203 3 2 ack 40 ------- 0 3.0 0.0 24 80
+ 1.208203 2 0 ack 40 ------- 0 3.0 0.0 24 80
- 1.208203 2 0 ack 40 ------- 0 3.0 0.0 24 80
r 1.208782 2 0 ack 40 ------- 0 3.0 0.0 17 72
+ 1.208782 0 2 tcp 1540 ------- 0 0.0 3.0 35 93
- 1.208782 0 2 tcp 1540 ------- 0 0.0 3.0 35 93
+ 1.208782 0 2 tcp 1540 ------- 0 0.0 3.0 36 94
- 1.208906 0 2 tcp 1540 ------- 0 0.0 3.0 36 94
r 1.209435 3 2 ack 40 ------- 0 3.0 0.0 25 81
+ 1.209435 2 0 ack 40 ------- 0 3.0 0.0 25 81
- 1.209435 2 0 ack 40 ------- 0 3.0 0.0 25 81
r 1.210014 2 0 ack 40 ------- 0 3.0 0.0 18 73
+ 1.210014 0 2 tcp 1540 ------- 0 0.0 3.0 37 95
- 1.210014 0 2 tcp 1540 ------- 0 0.0 3.0 37 95
+ 1.210014 0 2 tcp 1540 ------- 0 0.0 3.0 38 96
r 1.21008 1 2 cbr 1000 ------- 0 1.0 3.1 25 82
+ 1.21008 2 3 cbr 1000 ------- 0 1.0 3.1 25 82
- 1.21008 2 3 cbr 1000 ------- 0 1.0 3.1 25 82
- 1.210138 0 2 tcp 1540 ------- 0 0.0 3.0 38 96
r 1.210667 3 2 ack 40 ------- 0 3.0 0.0 26 83
+ 1.210667 2 0 ack 40 ------- 0 3.0 0.0 26 83
- 1.210667 2 0 ack 40 ------- 0 3.0 0.0 26 83
r 1.211246 2 0 ack 40 ------- 0 3.0 0.0 19 74
+ 1.211246 0 2 tcp 1540 ------- 0 0.0 3.0 39 97
- 1.211246 0 2 tcp 1540 ------- 0 0.0 3.0 39 97
r 1.211899 3 2 ack 40 ------- 0 3.0 0.0 27 84
+ 1.211899 2 0 ack 40 ------- 0 3.0 0.0 27 84
- 1.211899 2 0 ack 40 ------- 0 3.0 0.0 27 84
r 1.212478 2 0 ack 40 ------- 0 3.0 0.0 20 76
+ 1.212478 0 2 tcp 1540 ------- 0 0.0 3.0 40 98
- 1.212478 0 2 tcp 1540 ------- 0 0.0 3.0 40 98
r 1.21288 2 3 cbr 1000 ------- 0 1.0 3.1 24 75
r 1.213131 3 2 ack 40 ------- 0 3.0 0.0 28 85
+ 1.213131 2 0 ack 40 ------- 0 3.0 0.0 28 85
- 1.213131 2 0 ack 40 ------- 0 3.0 0.0 28 85
r 1.214363 3 2 ack 40 ------- 0 3.0 0.0 29 86
+ 1.214363 2 0 ack 40 ------- 0 3.0 0.0 29 86
- 1.214363 2 0 ack 40 ------- 0 3.0 0.0 29 86
r 1.21451 2 0 ack 40 ------- 0 3.0 0.0 21 77
+ 1.21451 0 2 tcp 1540 ------- 0 0.0 3.0 41 99
- 1.21451 0 2 tcp 1540 ------- 0 0.0 3.0 41 99
r 1.215595 3 2 ack 40 ------- 0 3.0 0.0 30 87
+ 1.215595 2 0 ack 40 ------- 0 3.0 0.0 30 87
- 1.215595 2 0 ack 40 ------- 0 3.0 0.0 30 87
r 1.215742 2 0 ack 40 ------- 0 3.0 0.0 22 78
+ 1.215742 0 2 tcp 1540 ------- 0 0.0 3.0 42 100
- 1.215742 0 2 tcp 1540 ------- 0 0.0 3.0 42 100
+ 1.216 1 2 cbr 1000 ------- 0 1.0 3.1 27 101
- 1.216 1 2 cbr 1000 ------- 0 1.0 3.1 27 101
r 1.216442 0 2 tcp 1540 ------- 0 0.0 3.0 31 88
+ 1.216442 2 3 tcp 1540 ------- 0 0.0 3.0 31 88
- 1.216442 2 3 tcp 1540 ------- 0 0.0 3.0 31 88
r 1.216565 0 2 tcp 1540 ------- 0 0.0 3.0 32 89
+ 1.216565 2 3 tcp 1540 ------- 0 0.0 3.0 32 89
r 1.216974 2 0 ack 40 ------- 0 3.0 0.0 23 79
+ 1.216974 0 2 tcp 1540 ------- 0 0.0 3.0 43 102
- 1.216974 0 2 tcp 1540 ------- 0 0.0 3.0 43 102
r 1.217674 0 2 tcp 1540 ------- 0 0.0 3.0 33 90
+ 1.217674 2 3 tcp 1540 ------- 0 0.0 3.0 33 90
- 1.217674 2 3 tcp 1540 ------- 0 0.0 3.0 32 89
r 1.217797 0 2 tcp 1540 ------- 0 0.0 3.0 34 91
+ 1.217797 2 3 tcp 1540 ------- 0 0.0 3.0 34 91
r 1.21808 1 2 cbr 1000 ------- 0 1.0 3.1 26 92
+ 1.21808 2 3 cbr 1000 ------- 0 1.0 3.1 26 92
r 1.218206 2 0 ack 40 ------- 0 3.0 0.0 24 80
+ 1.218206 0 2 tcp 1540 ------- 0 0.0 3.0 44 103
- 1.218206 0 2 tcp 1540 ------- 0 0.0 3.0 44 103
r 1.218906 0 2 tcp 1540 ------- 0 0.0 3.0 35 93
+ 1.218906 2 3 tcp 1540 ------- 0 0.0 3.0 35 93
- 1.218906 2 3 tcp 1540 ------- 0 0.0 3.0 33 90
r 1.219029 0 2 tcp 1540 ------- 0 0.0 3.0 36 94
+ 1.219029 2 3 tcp 1540 ------- 0 0.0 3.0 36 94
r 1.219438 2 0 ack 40 ------- 0 3.0 0.0 25 81
+ 1.219438 0 2 tcp 1540 ------- 0 0.0 3.0 45 104
- 1.219438 0 2 tcp 1540 ------- 0 0.0 3.0 45 104
r 1.220138 0 2 tcp 1540 ------- 0 0.0 3.0 37 95
+ 1.220138 2 3 tcp 1540 ------- 0 0.0 3.0 37 95
- 1.220138 2 3 tcp 1540 ------- 0 0.0 3.0 34 91
r 1.220261 0 2 tcp 1540 ------- 0 0.0 3.0 38 96
+ 1.220261 2 3 tcp 1540 ------- 0 0.0 3.0 38 96
r 1.22067 2 0 ack 40 ------- 0 3.0 0.0 26 83
+ 1.22067 0 2 tcp 1540 ------- 0 0.0 3.0 46 105
- 1.22067 0 2 tcp 1540 ------- 0 0.0 3.0 46 105
r 1.22088 2 3 cbr 1000 ------- 0 1.0 3.1 25 82
r 1.22137 0 2 tcp 1540 ------- 0 0.0 3.0 39 97
+ 1.22137 2 3 tcp 1540 ------- 0 0.0 3.0 39 97
- 1.22137 2 3 cbr 1000 ------- 0 1.0 3.1 26 92
r 1.221902 2 0 ack 40 ------- 0 3.0 0.0 27 84
+ 1.221902 0 2 tcp 1540 ------- 0 0.0 3.0 47 106
- 1.221902 0 2 tcp 1540 ------- 0 0.0 3.0 47 106
- 1.22217 2 3 tcp 1540 ------- 0 0.0 3.0 35 93
r 1.222602 0 2 tcp 1540 ------- 0 0.0 3.0 40 98
+ 1.222602 2 3 tcp 1540 ------- 0 0.0 3.0 40 98
r 1.223134 2 0 ack 40 ------- 0 3.0 0.0 28 85
+ 1.223134 0 2 tcp 1540 ------- 0 0.0 3.0 48 107
- 1.223134 0 2 tcp 1540 ------- 0 0.0 3.0 48 107
- 1.223402 2 3 tcp 1540 ------- 0 0.0 3.0 36 94
+ 1.224 1 2 cbr 1000 ------- 0 1.0 3.1 28 108
- 1.224 1 2 cbr 1000 ------- 0 1.0 3.1 28 108
r 1.224366 2 0 ack 40 ------- 0 3.0 0.0 29 86
+ 1.224366 0 2 tcp 1540 ------- 0 0.0 3.0 49 109
- 1.224366 0 2 tcp 1540 ------- 0 0.0 3.0 49 109
r 1.224634 0 2 tcp 1540 ------- 0 0.0 3.0 41 99
+ 1.224634 2 3 tcp 1540 ------- 0 0.0 3.0 41 99
- 1.224634 2 3 tcp 1540 ------- 0 0.0 3.0 37 95
r 1.225598 2 0 ack 40 ------- 0 3.0 0.0 30 87
+ 1.225598 0 2 tcp 1540 ------- 0 0.0 3.0 50 110
- 1.225598 0 2 tcp 1540 ------- 0 0.0 3.0 50 110
r 1.225866 0 2 tcp 1540 ------- 0 0.0 3.0 42 100
+ 1.225866 2 3 tcp 1540 ------- 0 0.0 3.0 42 100
- 1.225866 2 3 tcp 1540 ------- 0 0.0 3.0 38 96
r 1.22608 1 2 cbr 1000 ------- 0 1.0 3.1 27 101
+ 1.22608 2 3 cbr 1000 ------- 0 1.0 3.1 27 101
r 1.227098 0 2 tcp 1540 ------- 0 0.0 3.0 43 102
+ 1.227098 2 3 tcp 1540 ------- 0 0.0 3.0 43 102
- 1.227098 2 3 tcp 1540 ------- 0 0.0 3.0 39 97
r 1.227674 2 3 tcp 1540 ------- 0 0.0 3.0 31 88
+ 1.227674 3 2 ack 40 ------- 0 3.0 0.0 31 111
- 1.227674 3 2 ack 40 ------- 0 3.0 0.0 31 111
r 1.22833 0 2 tcp 1540 ------- 0 0.0 3.0 44 103
+ 1.22833 2 3 tcp 1540 ------- 0 0.0 3.0 44 103
- 1.22833 2 3 tcp 1540 ------- 0 0.0 3.0 40 98
r 1.228906 2 3 tcp 1540 ------- 0 0.0 3.0 32 89
+ 1.228906 3 2 ack 40 ------- 0 3.0 0.0 32 112
- 1.228906 3 2 ack 40 ------- 0 3.0 0.0 32 112
r 1.229562 0 2 tcp 1540 ------- 0 0.0 3.0 45 104
+ 1.229562 2 3 tcp 1540 ------- 0 0.0 3.0 45 104
- 1.229562 2 3 tcp 1540 ------- 0 0.0 3.0 41 99
r 1.230138 2 3 tcp 1540 ------- 0 0.0 3.0 33 90
+ 1.230138 3 2 ack 40 ------- 0 3.0 0.0 33 113
- 1.230138 3 2 ack 40 ------- 0 3.0 0.0 33 113
r 1.230794 0 2 tcp 1540 ------- 0 0.0 3.0 46 105
+ 1.230794 2 3 tcp 1540 ------- 0 0.0 3.0 46 105
- 1.230794 2 3 tcp 1540 ------- 0 0.0 3.0 42 100
r 1.23137 2 3 tcp 1540 ------- 0 0.0 3.0 34 91
+ 1.23137 3 2 ack 40 ------- 0 3.0 0.0 34 114
- 1.23137 3 2 ack 40 ------- 0 3.0 0.0 34 114
+ 1.232 1 2 cbr 1000 ------- 0 1.0 3.1 29 115
- 1.232 1 2 cbr 1000 ------- 0 1.0 3.1 29 115
r 1.232026 0 2 tcp 1540 ------- 0 0.0 3.0 47 106
+ 1.232026 2 3 tcp 1540 ------- 0 0.0 3.0 47 106
- 1.232026 2 3 cbr 1000 ------- 0 1.0 3.1 27 101
r 1.23217 2 3 cbr 1000 ------- 0 1.0 3.1 26 92
- 1.232826 2 3 tcp 1540 ------- 0 0.0 3.0 43 102
r 1.233258 0 2 tcp 1540 ------- 0 0.0 3.0 48 107
+ 1.233258 2 3 tcp 1540 ------- 0 0.0 3.0 48 107